<?xml version="1.0" encoding="ISO-8859-1"?>
<modeling>
 <generator>
  <i name="program" type="string">vasp </i>
  <i name="version" type="string">6.4.1  </i>
  <i name="subversion" type="string">05Apr23 (build Sep  6 2023 20:49:31) complex                          parallel </i>
  <i name="platform" type="string">LinuxNV </i>
  <i name="date" type="string">2023 10 19 </i>
  <i name="time" type="string">14:07:45 </i>
 </generator>
 <incar>
  <i type="string" name="PREC">Accurate</i>
  <i type="string" name="ALGO">Fast</i>
  <i name="EDIFF">      0.00000001</i>
  <i name="ENCUT">    500.00000000</i>
  <i type="int" name="ISMEAR">     0</i>
  <i name="SIGMA">      0.10000000</i>
  <i type="logical" name="LEPSILON"> T  </i>
 </incar>
 <primitive_cell>
  <structure name="primitive_cell" >
   <crystal>
    <varray name="basis" >
     <v>       4.87342988       0.00000000       0.00000000 </v>
     <v>      -2.43671494       4.22051408       0.00000000 </v>
     <v>       0.00000000       0.00000000       5.37418982 </v>
    </varray>
    <i name="volume">    110.53837516 </i>
    <varray name="rec_basis" >
     <v>       0.20519429       0.11846898      -0.00000000 </v>
     <v>       0.00000000       0.23693796       0.00000000 </v>
     <v>       0.00000000      -0.00000000       0.18607456 </v>
    </varray>
   </crystal>
   <varray name="positions" >
    <v>       0.46484021       0.00000000       0.66666667 </v>
    <v>       1.00000000       0.46484021       0.33333333 </v>
    <v>       0.53515979       0.53515979       1.00000000 </v>
    <v>       0.13555394       0.72394921       0.55429790 </v>
    <v>       0.27605079       0.41160473       0.22096457 </v>
    <v>       0.58839527       0.86444606       0.88763123 </v>
    <v>       0.41160473       0.27605079       0.77903543 </v>
    <v>       0.86444606       0.58839527       0.11236877 </v>
    <v>       0.72394921       0.13555394       0.44570210 </v>
   </varray>
  </structure>
  <varray name="primitive_index" >
   <v type="int" >        1 </v>
   <v type="int" >        2 </v>
   <v type="int" >        3 </v>
   <v type="int" >        4 </v>
   <v type="int" >        5 </v>
   <v type="int" >        6 </v>
   <v type="int" >        7 </v>
   <v type="int" >        8 </v>
   <v type="int" >        9 </v>
  </varray>
 </primitive_cell>
 <kpoints>
  <generation param="Gamma">
   <v type="int" name="divisions">       4        4        4 </v>
   <v name="usershift">      0.00000000       0.00000000       0.00000000 </v>
   <v name="genvec1">      0.25000000       0.00000000       0.00000000 </v>
   <v name="genvec2">      0.00000000       0.25000000       0.00000000 </v>
   <v name="genvec3">      0.00000000       0.00000000       0.25000000 </v>
   <v name="shift">      0.00000000       0.00000000       0.00000000 </v>
  </generation>
  <varray name="kpointlist" >
   <v>       0.00000000       0.00000000       0.00000000 </v>
   <v>       0.25000000       0.00000000       0.00000000 </v>
   <v>       0.50000000       0.00000000       0.00000000 </v>
   <v>       0.25000000       0.25000000       0.00000000 </v>
   <v>       0.00000000       0.00000000       0.25000000 </v>
   <v>       0.25000000       0.00000000       0.25000000 </v>
   <v>       0.00000000       0.25000000       0.25000000 </v>
   <v>       0.50000000       0.00000000       0.25000000 </v>
   <v>       0.25000000       0.25000000       0.25000000 </v>
   <v>       0.00000000       0.00000000       0.50000000 </v>
   <v>       0.25000000       0.00000000       0.50000000 </v>
   <v>       0.50000000       0.00000000       0.50000000 </v>
   <v>       0.25000000       0.25000000       0.50000000 </v>
  </varray>
  <varray name="weights" >
   <v>       0.01562500 </v>
   <v>       0.09375000 </v>
   <v>       0.04687500 </v>
   <v>       0.09375000 </v>
   <v>       0.03125000 </v>
   <v>       0.09375000 </v>
   <v>       0.09375000 </v>
   <v>       0.09375000 </v>
   <v>       0.18750000 </v>
   <v>       0.01562500 </v>
   <v>       0.09375000 </v>
   <v>       0.04687500 </v>
   <v>       0.09375000 </v>
  </varray>
 </kpoints>
 <parameters>
  <separator name="general" >
   <i type="string" name="SYSTEM">unknown system</i>
   <i type="logical" name="LCOMPAT"> F  </i>
  </separator>
  <separator name="electronic" >
   <i type="string" name="PREC">accura</i>
   <i name="ENMAX">    500.00000000</i>
   <i name="ENAUG">    605.39200000</i>
   <i name="EDIFF">      0.00000001</i>
   <i type="int" name="IALGO">    68</i>
   <i type="int" name="IWAVPR">    10</i>
   <i type="int" name="NBANDS">    29</i>
   <i type="int" name="NBANDSLOW">    -1</i>
   <i type="int" name="NBANDSHIGH">    -1</i>
   <i name="NELECT">     48.00000000</i>
   <i type="int" name="TURBO">     0</i>
   <i type="int" name="IRESTART">     0</i>
   <i type="int" name="NREBOOT">     0</i>
   <i type="int" name="NMIN">     0</i>
   <i name="EREF">      0.00000000</i>
   <separator name="electronic smearing" >
    <i type="int" name="ISMEAR">     0</i>
    <i name="SIGMA">      0.10000000</i>
    <i name="KSPACING">      0.50000000</i>
    <i type="logical" name="KGAMMA"> T  </i>
    <i type="logical" name="KBLOWUP"> T  </i>
   </separator>
   <separator name="electronic projectors" >
    <i type="logical" name="LREAL"> F  </i>
    <v name="ROPT">      0.00000000      0.00000000</v>
    <i type="int" name="LMAXPAW">  -100</i>
    <i type="int" name="LMAXMIX">     2</i>
    <i type="logical" name="NLSPLINE"> F  </i>
   </separator>
   <separator name="electronic startup" >
    <i type="int" name="ISTART">     0</i>
    <i type="int" name="ICHARG">     2</i>
    <i type="int" name="INIWAV">     1</i>
   </separator>
   <separator name="electronic spin" >
    <i type="int" name="ISPIN">     1</i>
    <i type="logical" name="LNONCOLLINEAR"> F  </i>
    <v name="MAGMOM">      1.00000000      1.00000000      1.00000000      1.00000000      1.00000000      1.00000000      1.00000000      1.00000000      1.00000000</v>
    <i name="NUPDOWN">     -1.00000000</i>
    <i type="logical" name="LSORBIT"> F  </i>
    <v name="SAXIS">      0.00000000      0.00000000      1.00000000</v>
    <i type="logical" name="LSPIRAL"> F  </i>
    <v name="QSPIRAL">      0.00000000      0.00000000      0.00000000</v>
    <i type="logical" name="LZEROZ"> F  </i>
   </separator>
   <separator name="electronic exchange-correlation" >
    <i type="logical" name="LASPH"> F  </i>
    <i type="logical" name="LMETAGGA"> F  </i>
   </separator>
   <separator name="electronic convergence" >
    <i type="int" name="NELM">    60</i>
    <i type="int" name="NELMDL">    -5</i>
    <i type="int" name="NELMIN">     2</i>
    <i name="ENINI">    500.00000000</i>
    <separator name="electronic convergence detail" >
     <i type="logical" name="LDIAG"> T  </i>
     <i type="logical" name="LSUBROT"> F  </i>
     <i name="WEIMIN">      0.00000000</i>
     <i name="EBREAK">      0.00000000</i>
     <i name="DEPER">      0.30000000</i>
     <i type="int" name="NRMM">     4</i>
     <i name="TIME">      0.40000000</i>
    </separator>
   </separator>
   <separator name="electronic mixer" >
    <i name="AMIX">      0.40000000</i>
    <i name="BMIX">      1.00000000</i>
    <i name="AMIN">      0.10000000</i>
    <i name="AMIX_MAG">      1.60000000</i>
    <i name="BMIX_MAG">      1.00000000</i>
    <separator name="electronic mixer details" >
     <i type="int" name="IMIX">     4</i>
     <i type="logical" name="MIXFIRST"> F  </i>
     <i type="int" name="MAXMIX">   -45</i>
     <i name="WC">    100.00000000</i>
     <i type="int" name="INIMIX">     1</i>
     <i type="int" name="MIXPRE">     1</i>
     <i type="int" name="MREMOVE">     5</i>
    </separator>
   </separator>
   <separator name="electronic dipolcorrection" >
    <i type="logical" name="LDIPOL"> F  </i>
    <i type="logical" name="LMONO"> F  </i>
    <i type="int" name="IDIPOL">     0</i>
    <i name="EPSILON">      1.00000000</i>
    <v name="DIPOL">   -100.00000000   -100.00000000   -100.00000000</v>
    <i name="EFIELD">      0.00000000</i>
   </separator>
  </separator>
  <separator name="grids" >
   <i type="int" name="NGX">    36</i>
   <i type="int" name="NGY">    36</i>
   <i type="int" name="NGZ">    40</i>
   <i type="int" name="NGXF">    72</i>
   <i type="int" name="NGYF">    72</i>
   <i type="int" name="NGZF">    80</i>
   <i type="logical" name="ADDGRID"> F  </i>
  </separator>
  <separator name="ionic" >
   <i type="int" name="NSW">     0</i>
   <i type="int" name="IBRION">    -1</i>
   <i type="int" name="MDALGO">     0</i>
   <i type="int" name="ISIF">     2</i>
   <i name="PSTRESS">      0.00000000</i>
   <i name="EDIFFG">      0.00000010</i>
   <i type="int" name="NFREE">     0</i>
   <i name="POTIM">      0.50000000</i>
   <i name="SMASS">     -3.00000000</i>
   <i name="SCALEE">      1.00000000</i>
  </separator>
  <separator name="ionic md" >
   <i name="TEBEG">      0.00010000</i>
   <i name="TEEND">      0.00010000</i>
   <i type="int" name="NBLOCK">     1</i>
   <i type="int" name="KBLOCK">     1</i>
   <i type="int" name="NPACO">   256</i>
   <i name="APACO">     10.00000000</i>
  </separator>
  <separator name="symmetry" >
   <i type="int" name="ISYM">     2</i>
   <i name="SYMPREC">      0.00001000</i>
  </separator>
  <separator name="dos" >
   <i type="int" name="LORBIT">     0</i>
   <v name="RWIGS">     -1.00000000     -1.00000000</v>
   <i type="int" name="NEDOS">   301</i>
   <i name="EMIN">     10.00000000</i>
   <i name="EMAX">    -10.00000000</i>
   <i name="EFERMI">      0.00000000</i>
  </separator>
  <separator name="writing" >
   <i type="int" name="NWRITE">     2</i>
   <i type="logical" name="LWAVE"> T  </i>
   <i type="logical" name="LDOWNSAMPLE"> F  </i>
   <i type="logical" name="LCHARG"> T  </i>
   <i type="logical" name="LPARD"> F  </i>
   <i type="logical" name="LVTOT"> F  </i>
   <i type="logical" name="LVHAR"> F  </i>
   <i type="logical" name="LELF"> F  </i>
   <i type="logical" name="LOPTICS"> F  </i>
   <v name="STM">      0.00000000      0.00000000      0.00000000      0.00000000      0.00000000      0.00000000      0.00000000</v>
  </separator>
  <separator name="performance" >
   <i type="int" name="NPAR">     1</i>
   <i type="int" name="NSIM">     4</i>
   <i type="int" name="NBLK">    -1</i>
   <i type="logical" name="LPLANE"> T  </i>
   <i type="logical" name="LSCALAPACK"> T  </i>
   <i type="logical" name="LSCAAWARE"> F  </i>
   <i type="logical" name="LSCALU"> F  </i>
   <i type="logical" name="LASYNC"> F  </i>
   <i type="logical" name="LORBITALREAL"> F  </i>
  </separator>
  <separator name="miscellaneous" >
   <i type="int" name="IDIOT">     3</i>
   <i type="int" name="PHON_NSTRUCT">    -1</i>
   <i type="logical" name="LMUSIC"> F  </i>
   <v name="POMASS">     28.08500000     16.00000000</v>
   <v name="DARWINR">      0.00000000      0.00000000</v>
   <v name="DARWINV">      1.00000000      1.00000000</v>
   <i type="logical" name="LCORR"> T  </i>
  </separator>
  <i type="logical" name="GGA_COMPAT"> T  </i>
  <i type="logical" name="LBERRY"> F  </i>
  <i type="int" name="ICORELEVEL">     0</i>
  <i type="logical" name="LDAU"> F  </i>
  <i type="int" name="I_CONSTRAINED_M">     0</i>
  <separator name="electronic exchange-correlation" >
   <i type="string" name="GGA">--</i>
   <i type="int" name="VOSKOWN">     0</i>
   <i type="logical" name="LHFCALC"> F  </i>
   <i type="string" name="PRECFOCK"></i>
   <i type="logical" name="LSYMGRAD"> F  </i>
   <i type="logical" name="LHFONE"> F  </i>
   <i type="logical" name="LRHFCALC"> F  </i>
   <i type="logical" name="LTHOMAS"> F  </i>
   <i type="logical" name="LMODELHF"> F  </i>
   <i type="logical" name="LFOCKACE"> F  </i>
   <i name="ENCUT4O">     -1.00000000</i>
   <i type="int" name="EXXOEP">     0</i>
   <i type="int" name="FOURORBIT">     0</i>
   <i name="AEXX">      0.00000000</i>
   <i name="HFALPHA">      0.00000000</i>
   <i name="MCALPHA">      0.00000000</i>
   <i name="ALDAX">      1.00000000</i>
   <i name="AGGAX">      1.00000000</i>
   <i name="ALDAC">      1.00000000</i>
   <i name="AGGAC">      1.00000000</i>
   <i type="int" name="NKREDX">     1</i>
   <i type="int" name="NKREDY">     1</i>
   <i type="int" name="NKREDZ">     1</i>
   <i type="logical" name="SHIFTRED"> F  </i>
   <i type="logical" name="ODDONLY"> F  </i>
   <i type="logical" name="EVENONLY"> F  </i>
   <i type="int" name="LMAXFOCK">     0</i>
   <i type="int" name="NMAXFOCKAE">     0</i>
   <i type="logical" name="LFOCKAEDFT"> F  </i>
   <i name="HFSCREEN">      0.00000000</i>
   <i name="HFSCREENC">      0.00000000</i>
   <i type="int" name="NBANDSGWLOW">     0</i>
  </separator>
  <separator name="vdW DFT" >
   <i type="logical" name="LUSE_VDW"> F  </i>
   <i type="int" name="IVDW_NL">     1</i>
   <i type="logical" name="LSPIN_VDW"> F  </i>
   <i name="Zab_VDW">     -0.84910000</i>
   <i name="PARAM1">      0.12340000</i>
   <i name="PARAM2">      1.00000000</i>
   <i name="PARAM3">      0.00000000</i>
  </separator>
  <separator name="model GW" >
   <i type="int" name="MODEL_GW">     0</i>
   <i name="MODEL_EPS0">      7.36922501</i>
   <i name="MODEL_ALPHA">      1.00000000</i>
  </separator>
  <separator name="linear response parameters" >
   <i type="logical" name="LEPSILON"> T  </i>
   <i type="logical" name="LRPA"> F  </i>
   <i type="logical" name="LNABLA"> F  </i>
   <i type="logical" name="LVEL"> F  </i>
   <i name="CSHIFT">      0.10000000</i>
   <i name="OMEGAMAX">     -1.00000000</i>
   <i name="DEG_THRESHOLD">      0.00200000</i>
   <i name="RTIME">     -0.10000000</i>
   <i name="WPLASMAI">      0.00000000</i>
   <v name="DFIELD">      0.00000000      0.00000000      0.00000000</v>
   <v name="WPLASMA">      0.00000000      0.00000000      0.00000000      0.00000000      0.00000000      0.00000000      0.00000000      0.00000000      0.00000000</v>
  </separator>
  <separator name="orbital magnetization" >
   <i type="logical" name="NUCIND"> F  </i>
   <v name="MAGPOS">      0.00000000      0.00000000      0.00000000</v>
   <i type="logical" name="LNICSALL"> T  </i>
   <i type="logical" name="ORBITALMAG"> F  </i>
   <i type="logical" name="LMAGBLOCH"> F  </i>
   <i type="logical" name="LCHIMAG"> F  </i>
   <i type="logical" name="LGAUGE"> T  </i>
   <i type="int" name="MAGATOM">     0</i>
   <v name="MAGDIPOL">      0.00000000      0.00000000      0.00000000</v>
   <v name="AVECCONST">      0.00000000      0.00000000      0.00000000</v>
  </separator>
  <separator name="response functions" >
   <i type="logical" name="LALL_IN_ONE"> F  </i>
   <i type="int" name="IALL_IN_ONE">    -1</i>
   <i type="int" name="NBANDS_WAVE">    -1</i>
   <i type="logical" name="LFINITE_TEMPERATURE"> F  </i>
   <i type="logical" name="LADDER"> F  </i>
   <i type="logical" name="LRPAFORCE"> F  </i>
   <i type="logical" name="LFXC"> F  </i>
   <i type="logical" name="LHARTREE"> T  </i>
   <i type="int" name="IBSE">     0</i>
   <v type="int" name="KPOINT">    -1     0     0     0</v>
   <i type="logical" name="LTCTC"> F  </i>
   <i type="logical" name="LTCTE"> F  </i>
   <i type="logical" name="LTETE"> F  </i>
   <i type="logical" name="LTRIPLET"> F  </i>
   <i type="logical" name="LFXCEPS"> F  </i>
   <i type="logical" name="LFXHEG"> F  </i>
   <i type="int" name="NATURALO">     2</i>
   <i type="logical" name="LHOLEGF"> F  </i>
   <i type="logical" name="L2ORDER"> F  </i>
   <i type="logical" name="LDMP1"> F  </i>
   <i type="logical" name="LMP2LT"> F  </i>
   <i type="logical" name="LSMP2LT"> F  </i>
   <i type="logical" name="LGWLF"> F  </i>
   <i name="ENCUTGW">     -1.60000002</i>
   <i name="ENCUTGWSOFT">     -1.60000002</i>
   <i name="ENCUTLF">     -1.00000000</i>
   <i type="logical" name="LESF_SPLINES"> F  </i>
   <i type="int" name="LMAXMP2">    -1</i>
   <i name="SCISSOR">      0.00000000</i>
   <i type="int" name="NOMEGA">     0</i>
   <i type="int" name="NOMEGAR">     0</i>
   <i type="int" name="NBANDSGW">    -1</i>
   <i type="int" name="NBANDSO">    -1</i>
   <i type="int" name="NBANDSV">    -1</i>
   <i type="int" name="NELMGW">     1</i>
   <i type="int" name="NELMHF">     1</i>
   <i type="int" name="DIM">     3</i>
   <i type="int" name="IESPILON">     4</i>
   <i type="int" name="ANTIRES">     0</i>
   <i name="OMEGAMAX">    -30.00000000</i>
   <i name="OMEGAMIN">    -30.00000000</i>
   <i name="OMEGATL">   -200.00000000</i>
   <i type="int" name="OMEGAGRID">     0</i>
   <i name="CSHIFT">     -0.10000000</i>
   <i type="logical" name="LSELFENERGY"> F  </i>
   <i type="logical" name="LSPECTRAL"> F  </i>
   <i type="logical" name="LSPECTRALGW"> F  </i>
   <i type="logical" name="LSINGLES"> F  </i>
   <i type="logical" name="LFERMIGW"> F  </i>
   <i type="logical" name="ODDONLYGW"> F  </i>
   <i type="logical" name="EVENONLYGW"> F  </i>
   <i type="int" name="NKREDLFX">     1</i>
   <i type="int" name="NKREDLFY">     1</i>
   <i type="int" name="NKREDLFZ">     1</i>
   <i type="int" name="MAXMEM">  2800</i>
   <i type="int" name="TELESCOPE">     0</i>
   <i type="int" name="NTAUPAR">    -1</i>
   <i type="int" name="NOMEGAPAR">    -1</i>
   <i name="DAMP_NEWTON">      0.80000001</i>
   <i name="LAMBDA">      1.00000000</i>
  </separator>
  <separator name="External order field" >
   <i name="OFIELD_KAPPA">      0.00000000</i>
   <v name="OFIELD_K">      0.00000000      0.00000000      0.00000000</v>
   <i name="OFIELD_Q6_NEAR">      0.00000000</i>
   <i name="OFIELD_Q6_FAR">      0.00000000</i>
   <i name="OFIELD_A">      0.00000000</i>
  </separator>
  <separator name="optional k-points parameters" >
   <i type="int" name="KPOINTS_OPT_MODE">     1</i>
   <i type="logical" name="LKPOINTS_OPT"> F  </i>
  </separator>
 </parameters>
 <atominfo>
  <atoms>       9 </atoms>
  <types>       2 </types>
  <array name="atoms" >
   <dimension dim="1">ion</dimension>
   <field type="string">element</field>
   <field type="int">atomtype</field>
   <set>
    <rc><c>Si</c><c>   1</c></rc>
    <rc><c>Si</c><c>   1</c></rc>
    <rc><c>Si</c><c>   1</c></rc>
    <rc><c>O </c><c>   2</c></rc>
    <rc><c>O </c><c>   2</c></rc>
    <rc><c>O </c><c>   2</c></rc>
    <rc><c>O </c><c>   2</c></rc>
    <rc><c>O </c><c>   2</c></rc>
    <rc><c>O </c><c>   2</c></rc>
   </set>
  </array>
  <array name="atomtypes" >
   <dimension dim="1">type</dimension>
   <field type="int">atomspertype</field>
   <field type="string">element</field>
   <field>mass</field>
   <field>valence</field>
   <field type="string">pseudopotential</field>
   <set>
    <rc><c>   3</c><c>Si</c><c>     28.08500000</c><c>      4.00000000</c><c>  PAW_PBE Si 05Jan2001                  </c></rc>
    <rc><c>   6</c><c>O </c><c>     16.00000000</c><c>      6.00000000</c><c>  PAW_PBE O 08Apr2002                   </c></rc>
   </set>
  </array>
 </atominfo>
 <structure name="initialpos" >
  <crystal>
   <varray name="basis" >
    <v>       4.87342988       0.00000000       0.00000000 </v>
    <v>      -2.43671494       4.22051408       0.00000000 </v>
    <v>       0.00000000       0.00000000       5.37418982 </v>
   </varray>
   <i name="volume">    110.53837516 </i>
   <varray name="rec_basis" >
    <v>       0.20519429       0.11846898      -0.00000000 </v>
    <v>       0.00000000       0.23693796       0.00000000 </v>
    <v>       0.00000000      -0.00000000       0.18607456 </v>
   </varray>
  </crystal>
  <varray name="positions" >
   <v>       0.46484021       0.00000000       0.66666667 </v>
   <v>       1.00000000       0.46484021       0.33333333 </v>
   <v>       0.53515979       0.53515979       1.00000000 </v>
   <v>       0.13555394       0.72394921       0.55429790 </v>
   <v>       0.27605079       0.41160473       0.22096457 </v>
   <v>       0.58839527       0.86444606       0.88763123 </v>
   <v>       0.41160473       0.27605079       0.77903543 </v>
   <v>       0.86444606       0.58839527       0.11236877 </v>
   <v>       0.72394921       0.13555394       0.44570210 </v>
  </varray>
 </structure>
 <calculation>
  <scstep>
   <time name="dav">    0.49    0.49</time>
   <time name="total">    0.52    0.51</time>
   <energy>
    <i name="alphaZ">     71.30271804 </i>
    <i name="ewald">  -1930.12568861 </i>
    <i name="hartreedc">   -909.46094976 </i>
    <i name="XCdc">    141.71008479 </i>
    <i name="pawpsdc">   2343.66826019 </i>
    <i name="pawaedc">  -2301.68043871 </i>
    <i name="eentropy">     -0.00332674 </i>
    <i name="bandstr">    -13.59911845 </i>
    <i name="atom">   2903.33737771 </i>
    <i name="e_fr_energy">    305.14891845 </i>
    <i name="e_wo_entrp">    305.15224520 </i>
    <i name="e_0_energy">    305.15058183 </i>
   </energy>
  </scstep>
  <scstep>
   <time name="dav">    0.45    0.45</time>
   <time name="total">    0.45    0.45</time>
   <energy>
    <i name="e_fr_energy">    -60.79995075 </i>
    <i name="e_wo_entrp">    -60.79995075 </i>
    <i name="e_0_energy">    -60.79995075 </i>
   </energy>
  </scstep>
  <scstep>
   <time name="dav">    0.43    0.43</time>
   <time name="total">    0.43    0.43</time>
   <energy>
    <i name="e_fr_energy">    -80.16505324 </i>
    <i name="e_wo_entrp">    -80.16505324 </i>
    <i name="e_0_energy">    -80.16505324 </i>
   </energy>
  </scstep>
  <scstep>
   <time name="dav">    0.42    0.42</time>
   <time name="total">    0.42    0.43</time>
   <energy>
    <i name="e_fr_energy">    -80.41808721 </i>
    <i name="e_wo_entrp">    -80.41808721 </i>
    <i name="e_0_energy">    -80.41808721 </i>
   </energy>
  </scstep>
  <scstep>
   <time name="dav">    0.42    0.42</time>
   <time name="total">    0.51    0.48</time>
   <energy>
    <i name="e_fr_energy">    -80.42309089 </i>
    <i name="e_wo_entrp">    -80.42309089 </i>
    <i name="e_0_energy">    -80.42309089 </i>
   </energy>
  </scstep>
  <scstep>
   <time name="diag">    0.05    0.04</time>
   <time name="diis">    0.47    0.47</time>
   <time name="orth">    0.00    0.00</time>
   <time name="total">    0.64    0.59</time>
   <energy>
    <i name="e_fr_energy">    -70.67379020 </i>
    <i name="e_wo_entrp">    -70.67379020 </i>
    <i name="e_0_energy">    -70.67379020 </i>
   </energy>
  </scstep>
  <scstep>
   <time name="diag">    0.05    0.04</time>
   <time name="diis">    0.52    0.52</time>
   <time name="orth">    0.00    0.00</time>
   <time name="total">    0.69    0.64</time>
   <energy>
    <i name="e_fr_energy">    -70.97643695 </i>
    <i name="e_wo_entrp">    -70.97643695 </i>
    <i name="e_0_energy">    -70.97643695 </i>
   </energy>
  </scstep>
  <scstep>
   <time name="diag">    0.05    0.04</time>
   <time name="diis">    0.53    0.53</time>
   <time name="orth">    0.00    0.00</time>
   <time name="total">    0.69    0.64</time>
   <energy>
    <i name="e_fr_energy">    -70.96829572 </i>
    <i name="e_wo_entrp">    -70.96829572 </i>
    <i name="e_0_energy">    -70.96829572 </i>
   </energy>
  </scstep>
  <scstep>
   <time name="diag">    0.05    0.04</time>
   <time name="diis">    0.54    0.54</time>
   <time name="orth">    0.00    0.00</time>
   <time name="total">    0.70    0.65</time>
   <energy>
    <i name="e_fr_energy">    -70.98737627 </i>
    <i name="e_wo_entrp">    -70.98737627 </i>
    <i name="e_0_energy">    -70.98737627 </i>
   </energy>
  </scstep>
  <scstep>
   <time name="diag">    0.05    0.04</time>
   <time name="diis">    0.53    0.53</time>
   <time name="orth">    0.00    0.00</time>
   <time name="total">    0.70    0.65</time>
   <energy>
    <i name="e_fr_energy">    -70.99268852 </i>
    <i name="e_wo_entrp">    -70.99268852 </i>
    <i name="e_0_energy">    -70.99268852 </i>
   </energy>
  </scstep>
  <scstep>
   <time name="diag">    0.05    0.04</time>
   <time name="diis">    0.53    0.54</time>
   <time name="orth">    0.00    0.00</time>
   <time name="total">    0.70    0.65</time>
   <energy>
    <i name="e_fr_energy">    -70.98880865 </i>
    <i name="e_wo_entrp">    -70.98880865 </i>
    <i name="e_0_energy">    -70.98880865 </i>
   </energy>
  </scstep>
  <scstep>
   <time name="diag">    0.05    0.04</time>
   <time name="diis">    0.53    0.54</time>
   <time name="orth">    0.00    0.00</time>
   <time name="total">    0.70    0.65</time>
   <energy>
    <i name="e_fr_energy">    -70.98940745 </i>
    <i name="e_wo_entrp">    -70.98940745 </i>
    <i name="e_0_energy">    -70.98940745 </i>
   </energy>
  </scstep>
  <scstep>
   <time name="diag">    0.05    0.04</time>
   <time name="diis">    0.56    0.57</time>
   <time name="orth">    0.00    0.00</time>
   <time name="total">    0.74    0.68</time>
   <energy>
    <i name="e_fr_energy">    -70.98917018 </i>
    <i name="e_wo_entrp">    -70.98917018 </i>
    <i name="e_0_energy">    -70.98917018 </i>
   </energy>
  </scstep>
  <scstep>
   <time name="diag">    0.05    0.04</time>
   <time name="diis">    0.55    0.55</time>
   <time name="orth">    0.00    0.00</time>
   <time name="total">    0.73    0.67</time>
   <energy>
    <i name="e_fr_energy">    -70.98913179 </i>
    <i name="e_wo_entrp">    -70.98913179 </i>
    <i name="e_0_energy">    -70.98913179 </i>
   </energy>
  </scstep>
  <scstep>
   <time name="diag">    0.05    0.04</time>
   <time name="diis">    0.58    0.58</time>
   <time name="orth">    0.00    0.00</time>
   <time name="total">    0.76    0.70</time>
   <energy>
    <i name="e_fr_energy">    -70.98912829 </i>
    <i name="e_wo_entrp">    -70.98912829 </i>
    <i name="e_0_energy">    -70.98912829 </i>
   </energy>
  </scstep>
  <scstep>
   <time name="diag">    0.05    0.04</time>
   <time name="diis">    0.54    0.54</time>
   <time name="orth">    0.00    0.00</time>
   <time name="total">    0.71    0.66</time>
   <energy>
    <i name="e_fr_energy">    -70.98912714 </i>
    <i name="e_wo_entrp">    -70.98912714 </i>
    <i name="e_0_energy">    -70.98912714 </i>
   </energy>
  </scstep>
  <scstep>
   <time name="diag">    0.05    0.04</time>
   <time name="diis">    0.54    0.54</time>
   <time name="orth">    0.00    0.00</time>
   <time name="total">    0.71    0.65</time>
   <energy>
    <i name="e_fr_energy">    -70.98912734 </i>
    <i name="e_wo_entrp">    -70.98912734 </i>
    <i name="e_0_energy">    -70.98912734 </i>
   </energy>
  </scstep>
  <scstep>
   <time name="diag">    0.05    0.04</time>
   <time name="diis">    0.58    0.59</time>
   <time name="orth">    0.00    0.00</time>
   <time name="total">    0.76    0.70</time>
   <energy>
    <i name="e_fr_energy">    -70.98912753 </i>
    <i name="e_wo_entrp">    -70.98912753 </i>
    <i name="e_0_energy">    -70.98912753 </i>
   </energy>
  </scstep>
  <scstep>
   <time name="diag">    0.05    0.04</time>
   <time name="diis">    0.54    0.54</time>
   <time name="orth">    0.00    0.00</time>
   <time name="total">    0.71    0.66</time>
   <energy>
    <i name="e_fr_energy">    -70.98912750 </i>
    <i name="e_wo_entrp">    -70.98912750 </i>
    <i name="e_0_energy">    -70.98912750 </i>
   </energy>
  </scstep>
  <scstep>
   <time name="diag">    0.05    0.04</time>
   <time name="diis">    0.54    0.54</time>
   <time name="orth">    0.00    0.00</time>
   <time name="total">    0.71    0.65</time>
   <energy>
    <i name="e_fr_energy">    -70.98912754 </i>
    <i name="e_wo_entrp">    -70.98912754 </i>
    <i name="e_0_energy">    -70.98912754 </i>
   </energy>
  </scstep>
  <scstep>
   <time name="diag">    0.05    0.04</time>
   <time name="diis">    0.36    0.36</time>
   <time name="orth">    0.00    0.00</time>
   <time name="total">    0.53    0.48</time>
   <energy>
    <i name="e_fr_energy">    -70.98912752 </i>
    <i name="e_wo_entrp">    -70.98912752 </i>
    <i name="e_0_energy">    -70.98912752 </i>
   </energy>
  </scstep>
  <scstep>
   <time name="diag">    0.05    0.04</time>
   <time name="diis">    0.36    0.36</time>
   <time name="orth">    0.00    0.00</time>
   <time name="total">    0.43    0.41</time>
   <energy>
    <i name="alphaZ">     71.30271804 </i>
    <i name="ewald">  -1930.12568861 </i>
    <i name="hartreedc">  -1040.62394070 </i>
    <i name="XCdc">    150.68588549 </i>
    <i name="pawpsdc">   8045.67897986 </i>
    <i name="pawaedc">  -8006.05671194 </i>
    <i name="eentropy">     -0.00000000 </i>
    <i name="bandstr">   -265.18774736 </i>
    <i name="atom">   2903.33737771 </i>
    <i name="e_fr_energy">    -70.98912751 </i>
    <i name="e_wo_entrp">    -70.98912751 </i>
    <i name="e_0_energy">    -70.98912751 </i>
   </energy>
  </scstep>
  <structure>
   <crystal>
    <varray name="basis" >
     <v>       4.87342988       0.00000000       0.00000000 </v>
     <v>      -2.43671494       4.22051408       0.00000000 </v>
     <v>       0.00000000       0.00000000       5.37418982 </v>
    </varray>
    <i name="volume">    110.53837516 </i>
    <varray name="rec_basis" >
     <v>       0.20519429       0.11846898      -0.00000000 </v>
     <v>       0.00000000       0.23693796       0.00000000 </v>
     <v>       0.00000000      -0.00000000       0.18607456 </v>
    </varray>
   </crystal>
   <varray name="positions" >
    <v>       0.46484021       0.00000000       0.66666667 </v>
    <v>       1.00000000       0.46484021       0.33333333 </v>
    <v>       0.53515979       0.53515979       1.00000000 </v>
    <v>       0.13555394       0.72394921       0.55429790 </v>
    <v>       0.27605079       0.41160473       0.22096457 </v>
    <v>       0.58839527       0.86444606       0.88763123 </v>
    <v>       0.41160473       0.27605079       0.77903543 </v>
    <v>       0.86444606       0.58839527       0.11236877 </v>
    <v>       0.72394921       0.13555394       0.44570210 </v>
   </varray>
  </structure>
  <varray name="forces" >
   <v>       0.00934375      -0.00000000       0.00000000 </v>
   <v>      -0.00467187       0.00809192       0.00000000 </v>
   <v>      -0.00467187      -0.00809192       0.00000000 </v>
   <v>      -0.27784354      -0.00018573       0.14957061 </v>
   <v>       0.13908262      -0.24052670       0.14957061 </v>
   <v>       0.13876093       0.24071243       0.14957061 </v>
   <v>      -0.27784354       0.00018573      -0.14957061 </v>
   <v>       0.13908262       0.24052670      -0.14957061 </v>
   <v>       0.13876093      -0.24071243      -0.14957061 </v>
  </varray>
  <varray name="stress" >
   <v>      72.06818239       0.00000000       0.00000000 </v>
   <v>       0.00000000      72.06818239      -0.00000000 </v>
   <v>       0.00000000       0.00000000      73.58474245 </v>
  </varray>
  <energy>
   <i name="e_fr_energy">    -70.98912751 </i>
   <i name="e_wo_entrp">    -70.98912751 </i>
   <i name="e_0_energy">    -70.98912751 </i>
  </energy>
  <scstep>
   <time name="total">    7.89    1.59</time>
   <energy>
    <i name="e_fr_energy">   -182.68828695 </i>
    <i name="e_wo_entrp">   -182.68828695 </i>
    <i name="e_0_energy">   -182.68828695 </i>
   </energy>
  </scstep>
  <scstep>
   <time name="total">    7.74    1.41</time>
   <energy>
    <i name="e_fr_energy">   -172.55228587 </i>
    <i name="e_wo_entrp">   -172.55228587 </i>
    <i name="e_0_energy">   -172.55228587 </i>
   </energy>
  </scstep>
  <scstep>
   <time name="total">    7.95    1.47</time>
   <energy>
    <i name="e_fr_energy">   -172.69851239 </i>
    <i name="e_wo_entrp">   -172.69851239 </i>
    <i name="e_0_energy">   -172.69851239 </i>
   </energy>
  </scstep>
  <scstep>
   <time name="total">    0.52    0.52</time>
   <energy>
    <i name="e_fr_energy">   -172.70588918 </i>
    <i name="e_wo_entrp">   -172.70588918 </i>
    <i name="e_0_energy">   -172.70588918 </i>
   </energy>
  </scstep>
  <scstep>
   <time name="total">    0.52    0.53</time>
   <energy>
    <i name="e_fr_energy">   -172.70606011 </i>
    <i name="e_wo_entrp">   -172.70606011 </i>
    <i name="e_0_energy">   -172.70606011 </i>
   </energy>
  </scstep>
  <scstep>
   <time name="total">    0.52    0.52</time>
   <energy>
    <i name="e_fr_energy">   -172.70606961 </i>
    <i name="e_wo_entrp">   -172.70606961 </i>
    <i name="e_0_energy">   -172.70606961 </i>
   </energy>
  </scstep>
  <scstep>
   <time name="total">    0.53    0.53</time>
   <energy>
    <i name="e_fr_energy">   -172.70606873 </i>
    <i name="e_wo_entrp">   -172.70606873 </i>
    <i name="e_0_energy">   -172.70606873 </i>
   </energy>
  </scstep>
  <scstep>
   <time name="total">    0.55    0.55</time>
   <energy>
    <i name="e_fr_energy">   -172.70606521 </i>
    <i name="e_wo_entrp">   -172.70606521 </i>
    <i name="e_0_energy">   -172.70606521 </i>
   </energy>
  </scstep>
  <scstep>
   <time name="total">    0.54    0.54</time>
   <energy>
    <i name="e_fr_energy">   -172.70606414 </i>
    <i name="e_wo_entrp">   -172.70606414 </i>
    <i name="e_0_energy">   -172.70606414 </i>
   </energy>
  </scstep>
  <scstep>
   <time name="total">    0.54    0.54</time>
   <energy>
    <i name="e_fr_energy">   -172.70606409 </i>
    <i name="e_wo_entrp">   -172.70606409 </i>
    <i name="e_0_energy">   -172.70606409 </i>
   </energy>
  </scstep>
  <scstep>
   <time name="total">    8.02    1.60</time>
   <energy>
    <i name="e_fr_energy">   -182.13824202 </i>
    <i name="e_wo_entrp">   -182.13824202 </i>
    <i name="e_0_energy">   -182.13824202 </i>
   </energy>
  </scstep>
  <scstep>
   <time name="total">    7.91    1.43</time>
   <energy>
    <i name="e_fr_energy">   -172.66882159 </i>
    <i name="e_wo_entrp">   -172.66882159 </i>
    <i name="e_0_energy">   -172.66882159 </i>
   </energy>
  </scstep>
  <scstep>
   <time name="total">    7.82    1.43</time>
   <energy>
    <i name="e_fr_energy">   -172.81157917 </i>
    <i name="e_wo_entrp">   -172.81157917 </i>
    <i name="e_0_energy">   -172.81157917 </i>
   </energy>
  </scstep>
  <scstep>
   <time name="total">    0.52    0.52</time>
   <energy>
    <i name="e_fr_energy">   -172.81886770 </i>
    <i name="e_wo_entrp">   -172.81886770 </i>
    <i name="e_0_energy">   -172.81886770 </i>
   </energy>
  </scstep>
  <scstep>
   <time name="total">    0.52    0.53</time>
   <energy>
    <i name="e_fr_energy">   -172.81905441 </i>
    <i name="e_wo_entrp">   -172.81905441 </i>
    <i name="e_0_energy">   -172.81905441 </i>
   </energy>
  </scstep>
  <scstep>
   <time name="total">    0.53    0.54</time>
   <energy>
    <i name="e_fr_energy">   -172.81907018 </i>
    <i name="e_wo_entrp">   -172.81907018 </i>
    <i name="e_0_energy">   -172.81907018 </i>
   </energy>
  </scstep>
  <scstep>
   <time name="total">    0.53    0.53</time>
   <energy>
    <i name="e_fr_energy">   -172.81907204 </i>
    <i name="e_wo_entrp">   -172.81907204 </i>
    <i name="e_0_energy">   -172.81907204 </i>
   </energy>
  </scstep>
  <scstep>
   <time name="total">    0.53    0.54</time>
   <energy>
    <i name="e_fr_energy">   -172.81907329 </i>
    <i name="e_wo_entrp">   -172.81907329 </i>
    <i name="e_0_energy">   -172.81907329 </i>
   </energy>
  </scstep>
  <scstep>
   <time name="total">    0.54    0.54</time>
   <energy>
    <i name="e_fr_energy">   -172.81907242 </i>
    <i name="e_wo_entrp">   -172.81907242 </i>
    <i name="e_0_energy">   -172.81907242 </i>
   </energy>
  </scstep>
  <scstep>
   <time name="total">    0.54    0.54</time>
   <energy>
    <i name="e_fr_energy">   -172.81907216 </i>
    <i name="e_wo_entrp">   -172.81907216 </i>
    <i name="e_0_energy">   -172.81907216 </i>
   </energy>
  </scstep>
  <scstep>
   <time name="total">    8.00    1.63</time>
   <energy>
    <i name="e_fr_energy">   -182.03616506 </i>
    <i name="e_wo_entrp">   -182.03616506 </i>
    <i name="e_0_energy">   -182.03616506 </i>
   </energy>
  </scstep>
  <scstep>
   <time name="total">    7.74    1.41</time>
   <energy>
    <i name="e_fr_energy">   -172.55529317 </i>
    <i name="e_wo_entrp">   -172.55529317 </i>
    <i name="e_0_energy">   -172.55529317 </i>
   </energy>
  </scstep>
  <scstep>
   <time name="total">    7.73    1.41</time>
   <energy>
    <i name="e_fr_energy">   -172.70830766 </i>
    <i name="e_wo_entrp">   -172.70830766 </i>
    <i name="e_0_energy">   -172.70830766 </i>
   </energy>
  </scstep>
  <scstep>
   <time name="total">    0.52    0.53</time>
   <energy>
    <i name="e_fr_energy">   -172.71564086 </i>
    <i name="e_wo_entrp">   -172.71564086 </i>
    <i name="e_0_energy">   -172.71564086 </i>
   </energy>
  </scstep>
  <scstep>
   <time name="total">    0.52    0.52</time>
   <energy>
    <i name="e_fr_energy">   -172.71580161 </i>
    <i name="e_wo_entrp">   -172.71580161 </i>
    <i name="e_0_energy">   -172.71580161 </i>
   </energy>
  </scstep>
  <scstep>
   <time name="total">    0.51    0.51</time>
   <energy>
    <i name="e_fr_energy">   -172.71580521 </i>
    <i name="e_wo_entrp">   -172.71580521 </i>
    <i name="e_0_energy">   -172.71580521 </i>
   </energy>
  </scstep>
  <scstep>
   <time name="total">    0.52    0.52</time>
   <energy>
    <i name="e_fr_energy">   -172.71580680 </i>
    <i name="e_wo_entrp">   -172.71580680 </i>
    <i name="e_0_energy">   -172.71580680 </i>
   </energy>
  </scstep>
  <scstep>
   <time name="total">    0.51    0.52</time>
   <energy>
    <i name="e_fr_energy">   -172.71580538 </i>
    <i name="e_wo_entrp">   -172.71580538 </i>
    <i name="e_0_energy">   -172.71580538 </i>
   </energy>
  </scstep>
  <scstep>
   <time name="total">    0.51    0.51</time>
   <energy>
    <i name="e_fr_energy">   -172.71579583 </i>
    <i name="e_wo_entrp">   -172.71579583 </i>
    <i name="e_0_energy">   -172.71579583 </i>
   </energy>
  </scstep>
  <scstep>
   <time name="total">    0.51    0.51</time>
   <energy>
    <i name="e_fr_energy">   -172.71579684 </i>
    <i name="e_wo_entrp">   -172.71579684 </i>
    <i name="e_0_energy">   -172.71579684 </i>
   </energy>
  </scstep>
  <scstep>
   <time name="total">    1.32    0.77</time>
   <energy>
    <i name="e_fr_energy">     -0.48211395 </i>
    <i name="e_wo_entrp">     -0.48211395 </i>
    <i name="e_0_energy">     -0.48211395 </i>
   </energy>
  </scstep>
  <scstep>
   <time name="total">    1.28    0.75</time>
   <energy>
    <i name="e_fr_energy">     -0.48453458 </i>
    <i name="e_wo_entrp">     -0.48453458 </i>
    <i name="e_0_energy">     -0.48453458 </i>
   </energy>
  </scstep>
  <scstep>
   <time name="total">    1.28    0.75</time>
   <energy>
    <i name="e_fr_energy">     -0.48471706 </i>
    <i name="e_wo_entrp">     -0.48471706 </i>
    <i name="e_0_energy">     -0.48471706 </i>
   </energy>
  </scstep>
  <scstep>
   <time name="total">    1.31    0.77</time>
   <energy>
    <i name="e_fr_energy">     -0.48472568 </i>
    <i name="e_wo_entrp">     -0.48472568 </i>
    <i name="e_0_energy">     -0.48472568 </i>
   </energy>
  </scstep>
  <scstep>
   <time name="total">    1.29    0.76</time>
   <energy>
    <i name="e_fr_energy">     -0.48472597 </i>
    <i name="e_wo_entrp">     -0.48472597 </i>
    <i name="e_0_energy">     -0.48472597 </i>
   </energy>
  </scstep>
  <scstep>
   <time name="total">    1.27    0.74</time>
   <energy>
    <i name="e_fr_energy">     -0.48472600 </i>
    <i name="e_wo_entrp">     -0.48472600 </i>
    <i name="e_0_energy">     -0.48472600 </i>
   </energy>
  </scstep>
  <scstep>
   <time name="total">    1.22    0.70</time>
   <energy>
    <i name="e_fr_energy">     -0.48472600 </i>
    <i name="e_wo_entrp">     -0.48472600 </i>
    <i name="e_0_energy">     -0.48472600 </i>
   </energy>
  </scstep>
  <scstep>
   <time name="total">    1.21    0.68</time>
   <energy>
    <i name="e_fr_energy">     -0.48472600 </i>
    <i name="e_wo_entrp">     -0.48472600 </i>
    <i name="e_0_energy">     -0.48472600 </i>
   </energy>
  </scstep>
  <scstep>
   <time name="total">    1.22    0.68</time>
   <energy>
    <i name="e_fr_energy">     -0.48472600 </i>
    <i name="e_wo_entrp">     -0.48472600 </i>
    <i name="e_0_energy">     -0.48472600 </i>
   </energy>
  </scstep>
  <scstep>
   <time name="total">    1.32    0.77</time>
   <energy>
    <i name="e_fr_energy">     -0.48385169 </i>
    <i name="e_wo_entrp">     -0.48385169 </i>
    <i name="e_0_energy">     -0.48385169 </i>
   </energy>
  </scstep>
  <scstep>
   <time name="total">    1.28    0.75</time>
   <energy>
    <i name="e_fr_energy">     -0.48605126 </i>
    <i name="e_wo_entrp">     -0.48605126 </i>
    <i name="e_0_energy">     -0.48605126 </i>
   </energy>
  </scstep>
  <scstep>
   <time name="total">    1.32    0.77</time>
   <energy>
    <i name="e_fr_energy">     -0.48624378 </i>
    <i name="e_wo_entrp">     -0.48624378 </i>
    <i name="e_0_energy">     -0.48624378 </i>
   </energy>
  </scstep>
  <scstep>
   <time name="total">    1.28    0.75</time>
   <energy>
    <i name="e_fr_energy">     -0.48625254 </i>
    <i name="e_wo_entrp">     -0.48625254 </i>
    <i name="e_0_energy">     -0.48625254 </i>
   </energy>
  </scstep>
  <scstep>
   <time name="total">    1.31    0.78</time>
   <energy>
    <i name="e_fr_energy">     -0.48625285 </i>
    <i name="e_wo_entrp">     -0.48625285 </i>
    <i name="e_0_energy">     -0.48625285 </i>
   </energy>
  </scstep>
  <scstep>
   <time name="total">    1.34    0.77</time>
   <energy>
    <i name="e_fr_energy">     -0.48625287 </i>
    <i name="e_wo_entrp">     -0.48625287 </i>
    <i name="e_0_energy">     -0.48625287 </i>
   </energy>
  </scstep>
  <scstep>
   <time name="total">    1.23    0.70</time>
   <energy>
    <i name="e_fr_energy">     -0.48625288 </i>
    <i name="e_wo_entrp">     -0.48625288 </i>
    <i name="e_0_energy">     -0.48625288 </i>
   </energy>
  </scstep>
  <scstep>
   <time name="total">    1.22    0.69</time>
   <energy>
    <i name="e_fr_energy">     -0.48625288 </i>
    <i name="e_wo_entrp">     -0.48625288 </i>
    <i name="e_0_energy">     -0.48625288 </i>
   </energy>
  </scstep>
  <scstep>
   <time name="total">    1.21    0.68</time>
   <energy>
    <i name="e_fr_energy">     -0.48625288 </i>
    <i name="e_wo_entrp">     -0.48625288 </i>
    <i name="e_0_energy">     -0.48625288 </i>
   </energy>
  </scstep>
  <scstep>
   <time name="total">    1.30    0.76</time>
   <energy>
    <i name="e_fr_energy">     -0.48771434 </i>
    <i name="e_wo_entrp">     -0.48771434 </i>
    <i name="e_0_energy">     -0.48771434 </i>
   </energy>
  </scstep>
  <scstep>
   <time name="total">    1.37    0.79</time>
   <energy>
    <i name="e_fr_energy">     -0.48976226 </i>
    <i name="e_wo_entrp">     -0.48976226 </i>
    <i name="e_0_energy">     -0.48976226 </i>
   </energy>
  </scstep>
  <scstep>
   <time name="total">    1.28    0.75</time>
   <energy>
    <i name="e_fr_energy">     -0.48995317 </i>
    <i name="e_wo_entrp">     -0.48995317 </i>
    <i name="e_0_energy">     -0.48995317 </i>
   </energy>
  </scstep>
  <scstep>
   <time name="total">    1.30    0.76</time>
   <energy>
    <i name="e_fr_energy">     -0.48996209 </i>
    <i name="e_wo_entrp">     -0.48996209 </i>
    <i name="e_0_energy">     -0.48996209 </i>
   </energy>
  </scstep>
  <scstep>
   <time name="total">    1.32    0.77</time>
   <energy>
    <i name="e_fr_energy">     -0.48996239 </i>
    <i name="e_wo_entrp">     -0.48996239 </i>
    <i name="e_0_energy">     -0.48996239 </i>
   </energy>
  </scstep>
  <scstep>
   <time name="total">    1.26    0.73</time>
   <energy>
    <i name="e_fr_energy">     -0.48996241 </i>
    <i name="e_wo_entrp">     -0.48996241 </i>
    <i name="e_0_energy">     -0.48996241 </i>
   </energy>
  </scstep>
  <scstep>
   <time name="total">    1.23    0.69</time>
   <energy>
    <i name="e_fr_energy">     -0.48996242 </i>
    <i name="e_wo_entrp">     -0.48996242 </i>
    <i name="e_0_energy">     -0.48996242 </i>
   </energy>
  </scstep>
  <scstep>
   <time name="total">    1.21    0.68</time>
   <energy>
    <i name="e_fr_energy">     -0.48996242 </i>
    <i name="e_wo_entrp">     -0.48996242 </i>
    <i name="e_0_energy">     -0.48996242 </i>
   </energy>
  </scstep>
  <scstep>
   <time name="total">    1.20    0.67</time>
   <energy>
    <i name="e_fr_energy">     -0.48996242 </i>
    <i name="e_wo_entrp">     -0.48996242 </i>
    <i name="e_0_energy">     -0.48996242 </i>
   </energy>
  </scstep>
  <scstep>
   <time name="total">    1.20    0.67</time>
   <energy>
    <i name="e_fr_energy">     -0.48996242 </i>
    <i name="e_wo_entrp">     -0.48996242 </i>
    <i name="e_0_energy">     -0.48996242 </i>
   </energy>
  </scstep>
  <varray name="dielectric_ipa" >
   <v>       2.58950483       0.00000000       0.00000000 </v>
   <v>       0.00000000       2.58950483       0.00000000 </v>
   <v>       0.00000000       0.00000000       2.60415032 </v>
  </varray>
  <kpoints>
   <generation param="Gamma">
    <v type="int" name="divisions">       4        4        4 </v>
    <v name="usershift">      0.00000000       0.00000000       0.00000000 </v>
    <v name="genvec1">      0.25000000       0.00000000       0.00000000 </v>
    <v name="genvec2">      0.00000000       0.25000000       0.00000000 </v>
    <v name="genvec3">      0.00000000       0.00000000       0.25000000 </v>
    <v name="shift">      0.00000000       0.00000000       0.00000000 </v>
   </generation>
   <varray name="kpointlist" >
    <v>       0.00000000       0.00000000       0.00000000 </v>
    <v>       0.25000000       0.00000000       0.00000000 </v>
    <v>       0.00000000       0.25000000       0.00000000 </v>
    <v>       0.50000000       0.00000000       0.00000000 </v>
    <v>       0.00000000       0.50000000       0.00000000 </v>
    <v>       0.25000000       0.25000000       0.00000000 </v>
    <v>       0.50000000       0.25000000       0.00000000 </v>
    <v>       0.00000000       0.00000000       0.25000000 </v>
    <v>       0.25000000       0.00000000       0.25000000 </v>
    <v>       0.00000000       0.25000000       0.25000000 </v>
    <v>      -0.25000000       0.00000000       0.25000000 </v>
    <v>       0.00000000      -0.25000000       0.25000000 </v>
    <v>       0.50000000       0.00000000       0.25000000 </v>
    <v>       0.00000000       0.50000000       0.25000000 </v>
    <v>       0.25000000       0.25000000       0.25000000 </v>
    <v>       0.50000000       0.25000000       0.25000000 </v>
    <v>      -0.25000000      -0.25000000       0.25000000 </v>
    <v>       0.00000000       0.00000000       0.50000000 </v>
    <v>       0.25000000       0.00000000       0.50000000 </v>
    <v>       0.00000000       0.25000000       0.50000000 </v>
    <v>       0.50000000       0.00000000       0.50000000 </v>
    <v>       0.00000000       0.50000000       0.50000000 </v>
    <v>       0.25000000       0.25000000       0.50000000 </v>
    <v>       0.50000000       0.25000000       0.50000000 </v>
   </varray>
   <varray name="weights" >
    <v>       0.01562500 </v>
    <v>       0.06250000 </v>
    <v>       0.03125000 </v>
    <v>       0.03125000 </v>
    <v>       0.01562500 </v>
    <v>       0.06250000 </v>
    <v>       0.03125000 </v>
    <v>       0.03125000 </v>
    <v>       0.06250000 </v>
    <v>       0.03125000 </v>
    <v>       0.06250000 </v>
    <v>       0.03125000 </v>
    <v>       0.06250000 </v>
    <v>       0.03125000 </v>
    <v>       0.06250000 </v>
    <v>       0.06250000 </v>
    <v>       0.06250000 </v>
    <v>       0.01562500 </v>
    <v>       0.06250000 </v>
    <v>       0.03125000 </v>
    <v>       0.03125000 </v>
    <v>       0.01562500 </v>
    <v>       0.06250000 </v>
    <v>       0.03125000 </v>
   </varray>
  </kpoints>
  <scstep>
   <time name="total">    2.04    1.35</time>
   <energy>
    <i name="e_fr_energy">     -0.48304707 </i>
    <i name="e_wo_entrp">     -0.48304707 </i>
    <i name="e_0_energy">     -0.48304707 </i>
   </energy>
  </scstep>
  <scstep>
   <time name="total">    1.89    1.33</time>
   <energy>
    <i name="e_fr_energy">     -0.48529349 </i>
    <i name="e_wo_entrp">     -0.48529349 </i>
    <i name="e_0_energy">     -0.48529349 </i>
   </energy>
  </scstep>
  <scstep>
   <time name="total">    1.91    1.36</time>
   <energy>
    <i name="e_fr_energy">     -0.46497597 </i>
    <i name="e_wo_entrp">     -0.46497597 </i>
    <i name="e_0_energy">     -0.46497597 </i>
   </energy>
  </scstep>
  <scstep>
   <time name="total">    1.96    1.36</time>
   <energy>
    <i name="e_fr_energy">     -0.47604955 </i>
    <i name="e_wo_entrp">     -0.47604955 </i>
    <i name="e_0_energy">     -0.47604955 </i>
   </energy>
  </scstep>
  <scstep>
   <time name="total">    1.89    1.33</time>
   <energy>
    <i name="e_fr_energy">     -0.49380057 </i>
    <i name="e_wo_entrp">     -0.49380057 </i>
    <i name="e_0_energy">     -0.49380057 </i>
   </energy>
  </scstep>
  <scstep>
   <time name="total">    1.88    1.33</time>
   <energy>
    <i name="e_fr_energy">     -0.49670609 </i>
    <i name="e_wo_entrp">     -0.49670609 </i>
    <i name="e_0_energy">     -0.49670609 </i>
   </energy>
  </scstep>
  <scstep>
   <time name="total">    1.90    1.34</time>
   <energy>
    <i name="e_fr_energy">     -0.49695806 </i>
    <i name="e_wo_entrp">     -0.49695806 </i>
    <i name="e_0_energy">     -0.49695806 </i>
   </energy>
  </scstep>
  <scstep>
   <time name="total">    1.92    1.36</time>
   <energy>
    <i name="e_fr_energy">     -0.49718793 </i>
    <i name="e_wo_entrp">     -0.49718793 </i>
    <i name="e_0_energy">     -0.49718793 </i>
   </energy>
  </scstep>
  <scstep>
   <time name="total">    1.93    1.37</time>
   <energy>
    <i name="e_fr_energy">     -0.49724874 </i>
    <i name="e_wo_entrp">     -0.49724874 </i>
    <i name="e_0_energy">     -0.49724874 </i>
   </energy>
  </scstep>
  <scstep>
   <time name="total">    1.91    1.35</time>
   <energy>
    <i name="e_fr_energy">     -0.49724492 </i>
    <i name="e_wo_entrp">     -0.49724492 </i>
    <i name="e_0_energy">     -0.49724492 </i>
   </energy>
  </scstep>
  <scstep>
   <time name="total">    1.95    1.36</time>
   <energy>
    <i name="e_fr_energy">     -0.49724587 </i>
    <i name="e_wo_entrp">     -0.49724587 </i>
    <i name="e_0_energy">     -0.49724587 </i>
   </energy>
  </scstep>
  <scstep>
   <time name="total">    1.86    1.31</time>
   <energy>
    <i name="e_fr_energy">     -0.49724589 </i>
    <i name="e_wo_entrp">     -0.49724589 </i>
    <i name="e_0_energy">     -0.49724589 </i>
   </energy>
  </scstep>
  <scstep>
   <time name="total">    1.86    1.30</time>
   <energy>
    <i name="e_fr_energy">     -0.49724583 </i>
    <i name="e_wo_entrp">     -0.49724583 </i>
    <i name="e_0_energy">     -0.49724583 </i>
   </energy>
  </scstep>
  <scstep>
   <time name="total">    1.93    1.34</time>
   <energy>
    <i name="e_fr_energy">     -0.49724580 </i>
    <i name="e_wo_entrp">     -0.49724580 </i>
    <i name="e_0_energy">     -0.49724580 </i>
   </energy>
  </scstep>
  <kpoints>
   <generation param="Gamma">
    <v type="int" name="divisions">       4        4        4 </v>
    <v name="usershift">      0.00000000       0.00000000       0.00000000 </v>
    <v name="genvec1">      0.25000000       0.00000000       0.00000000 </v>
    <v name="genvec2">      0.00000000       0.25000000       0.00000000 </v>
    <v name="genvec3">      0.00000000       0.00000000       0.25000000 </v>
    <v name="shift">      0.00000000       0.00000000       0.00000000 </v>
   </generation>
   <varray name="kpointlist" >
    <v>       0.00000000       0.00000000       0.00000000 </v>
    <v>       0.25000000       0.00000000       0.00000000 </v>
    <v>       0.00000000       0.25000000       0.00000000 </v>
    <v>      -0.25000000       0.25000000       0.00000000 </v>
    <v>       0.50000000       0.00000000       0.00000000 </v>
    <v>       0.00000000       0.50000000       0.00000000 </v>
    <v>       0.50000000       0.50000000       0.00000000 </v>
    <v>       0.25000000       0.25000000       0.00000000 </v>
    <v>      -0.25000000       0.50000000       0.00000000 </v>
    <v>       0.50000000       0.25000000       0.00000000 </v>
    <v>       0.00000000       0.00000000       0.25000000 </v>
    <v>       0.25000000       0.00000000       0.25000000 </v>
    <v>       0.00000000       0.25000000       0.25000000 </v>
    <v>      -0.25000000       0.25000000       0.25000000 </v>
    <v>      -0.25000000       0.00000000       0.25000000 </v>
    <v>       0.00000000      -0.25000000       0.25000000 </v>
    <v>       0.25000000      -0.25000000       0.25000000 </v>
    <v>       0.50000000       0.00000000       0.25000000 </v>
    <v>       0.00000000       0.50000000       0.25000000 </v>
    <v>       0.50000000       0.50000000       0.25000000 </v>
    <v>       0.25000000       0.25000000       0.25000000 </v>
    <v>      -0.25000000       0.50000000       0.25000000 </v>
    <v>       0.50000000       0.25000000       0.25000000 </v>
    <v>      -0.25000000      -0.25000000       0.25000000 </v>
    <v>       0.25000000       0.50000000       0.25000000 </v>
    <v>       0.50000000      -0.25000000       0.25000000 </v>
    <v>       0.00000000       0.00000000       0.50000000 </v>
    <v>       0.25000000       0.00000000       0.50000000 </v>
    <v>       0.00000000       0.25000000       0.50000000 </v>
    <v>      -0.25000000       0.25000000       0.50000000 </v>
    <v>       0.50000000       0.00000000       0.50000000 </v>
    <v>       0.00000000       0.50000000       0.50000000 </v>
    <v>       0.50000000       0.50000000       0.50000000 </v>
    <v>       0.25000000       0.25000000       0.50000000 </v>
    <v>      -0.25000000       0.50000000       0.50000000 </v>
    <v>       0.50000000       0.25000000       0.50000000 </v>
   </varray>
   <varray name="weights" >
    <v>       0.01562500 </v>
    <v>       0.03125000 </v>
    <v>       0.03125000 </v>
    <v>       0.03125000 </v>
    <v>       0.01562500 </v>
    <v>       0.01562500 </v>
    <v>       0.01562500 </v>
    <v>       0.03125000 </v>
    <v>       0.03125000 </v>
    <v>       0.03125000 </v>
    <v>       0.03125000 </v>
    <v>       0.03125000 </v>
    <v>       0.03125000 </v>
    <v>       0.03125000 </v>
    <v>       0.03125000 </v>
    <v>       0.03125000 </v>
    <v>       0.03125000 </v>
    <v>       0.03125000 </v>
    <v>       0.03125000 </v>
    <v>       0.03125000 </v>
    <v>       0.03125000 </v>
    <v>       0.03125000 </v>
    <v>       0.03125000 </v>
    <v>       0.03125000 </v>
    <v>       0.03125000 </v>
    <v>       0.03125000 </v>
    <v>       0.01562500 </v>
    <v>       0.03125000 </v>
    <v>       0.03125000 </v>
    <v>       0.03125000 </v>
    <v>       0.01562500 </v>
    <v>       0.01562500 </v>
    <v>       0.01562500 </v>
    <v>       0.03125000 </v>
    <v>       0.03125000 </v>
    <v>       0.03125000 </v>
   </varray>
  </kpoints>
  <scstep>
   <time name="total">    2.39    1.86</time>
   <energy>
    <i name="e_fr_energy">     -0.48308917 </i>
    <i name="e_wo_entrp">     -0.48308917 </i>
    <i name="e_0_energy">     -0.48308917 </i>
   </energy>
  </scstep>
  <scstep>
   <time name="total">    2.49    1.93</time>
   <energy>
    <i name="e_fr_energy">     -0.48529173 </i>
    <i name="e_wo_entrp">     -0.48529173 </i>
    <i name="e_0_energy">     -0.48529173 </i>
   </energy>
  </scstep>
  <scstep>
   <time name="total">    2.48    1.93</time>
   <energy>
    <i name="e_fr_energy">     -0.46513484 </i>
    <i name="e_wo_entrp">     -0.46513484 </i>
    <i name="e_0_energy">     -0.46513484 </i>
   </energy>
  </scstep>
  <scstep>
   <time name="total">    2.50    1.94</time>
   <energy>
    <i name="e_fr_energy">     -0.47598727 </i>
    <i name="e_wo_entrp">     -0.47598727 </i>
    <i name="e_0_energy">     -0.47598727 </i>
   </energy>
  </scstep>
  <scstep>
   <time name="total">    2.49    1.93</time>
   <energy>
    <i name="e_fr_energy">     -0.49371196 </i>
    <i name="e_wo_entrp">     -0.49371196 </i>
    <i name="e_0_energy">     -0.49371196 </i>
   </energy>
  </scstep>
  <scstep>
   <time name="total">    2.52    1.95</time>
   <energy>
    <i name="e_fr_energy">     -0.49662871 </i>
    <i name="e_wo_entrp">     -0.49662871 </i>
    <i name="e_0_energy">     -0.49662871 </i>
   </energy>
  </scstep>
  <scstep>
   <time name="total">    2.51    1.95</time>
   <energy>
    <i name="e_fr_energy">     -0.49687177 </i>
    <i name="e_wo_entrp">     -0.49687177 </i>
    <i name="e_0_energy">     -0.49687177 </i>
   </energy>
  </scstep>
  <scstep>
   <time name="total">    2.55    1.97</time>
   <energy>
    <i name="e_fr_energy">     -0.49710155 </i>
    <i name="e_wo_entrp">     -0.49710155 </i>
    <i name="e_0_energy">     -0.49710155 </i>
   </energy>
  </scstep>
  <scstep>
   <time name="total">    2.55    1.96</time>
   <energy>
    <i name="e_fr_energy">     -0.49716670 </i>
    <i name="e_wo_entrp">     -0.49716670 </i>
    <i name="e_0_energy">     -0.49716670 </i>
   </energy>
  </scstep>
  <scstep>
   <time name="total">    2.55    1.96</time>
   <energy>
    <i name="e_fr_energy">     -0.49716176 </i>
    <i name="e_wo_entrp">     -0.49716176 </i>
    <i name="e_0_energy">     -0.49716176 </i>
   </energy>
  </scstep>
  <scstep>
   <time name="total">    2.55    1.97</time>
   <energy>
    <i name="e_fr_energy">     -0.49716277 </i>
    <i name="e_wo_entrp">     -0.49716277 </i>
    <i name="e_0_energy">     -0.49716277 </i>
   </energy>
  </scstep>
  <scstep>
   <time name="total">    2.52    1.92</time>
   <energy>
    <i name="e_fr_energy">     -0.49716286 </i>
    <i name="e_wo_entrp">     -0.49716286 </i>
    <i name="e_0_energy">     -0.49716286 </i>
   </energy>
  </scstep>
  <scstep>
   <time name="total">    2.54    1.94</time>
   <energy>
    <i name="e_fr_energy">     -0.49716290 </i>
    <i name="e_wo_entrp">     -0.49716290 </i>
    <i name="e_0_energy">     -0.49716290 </i>
   </energy>
  </scstep>
  <scstep>
   <time name="total">    2.55    1.95</time>
   <energy>
    <i name="e_fr_energy">     -0.49716281 </i>
    <i name="e_wo_entrp">     -0.49716281 </i>
    <i name="e_0_energy">     -0.49716281 </i>
   </energy>
  </scstep>
  <kpoints>
   <generation param="Gamma">
    <v type="int" name="divisions">       4        4        4 </v>
    <v name="usershift">      0.00000000       0.00000000       0.00000000 </v>
    <v name="genvec1">      0.25000000       0.00000000       0.00000000 </v>
    <v name="genvec2">      0.00000000       0.25000000       0.00000000 </v>
    <v name="genvec3">      0.00000000       0.00000000       0.25000000 </v>
    <v name="shift">      0.00000000       0.00000000       0.00000000 </v>
   </generation>
   <varray name="kpointlist" >
    <v>       0.00000000       0.00000000       0.00000000 </v>
    <v>       0.25000000       0.00000000       0.00000000 </v>
    <v>       0.50000000       0.00000000       0.00000000 </v>
    <v>       0.25000000       0.25000000       0.00000000 </v>
    <v>       0.00000000       0.00000000       0.25000000 </v>
    <v>       0.25000000       0.00000000       0.25000000 </v>
    <v>       0.00000000       0.25000000       0.25000000 </v>
    <v>       0.50000000       0.00000000       0.25000000 </v>
    <v>       0.25000000       0.25000000       0.25000000 </v>
    <v>      -0.25000000       0.50000000       0.25000000 </v>
    <v>       0.00000000       0.00000000       0.50000000 </v>
    <v>       0.25000000       0.00000000       0.50000000 </v>
    <v>       0.50000000       0.00000000       0.50000000 </v>
    <v>       0.25000000       0.25000000       0.50000000 </v>
   </varray>
   <varray name="weights" >
    <v>       0.01562500 </v>
    <v>       0.09375000 </v>
    <v>       0.04687500 </v>
    <v>       0.09375000 </v>
    <v>       0.03125000 </v>
    <v>       0.09375000 </v>
    <v>       0.09375000 </v>
    <v>       0.09375000 </v>
    <v>       0.09375000 </v>
    <v>       0.09375000 </v>
    <v>       0.01562500 </v>
    <v>       0.09375000 </v>
    <v>       0.04687500 </v>
    <v>       0.09375000 </v>
   </varray>
  </kpoints>
  <scstep>
   <time name="total">    1.34    0.81</time>
   <energy>
    <i name="e_fr_energy">     -0.48771435 </i>
    <i name="e_wo_entrp">     -0.48771435 </i>
    <i name="e_0_energy">     -0.48771435 </i>
   </energy>
  </scstep>
  <scstep>
   <time name="total">    1.39    0.84</time>
   <energy>
    <i name="e_fr_energy">     -0.48976226 </i>
    <i name="e_wo_entrp">     -0.48976226 </i>
    <i name="e_0_energy">     -0.48976226 </i>
   </energy>
  </scstep>
  <scstep>
   <time name="total">    1.39    0.83</time>
   <energy>
    <i name="e_fr_energy">     -0.47447328 </i>
    <i name="e_wo_entrp">     -0.47447328 </i>
    <i name="e_0_energy">     -0.47447328 </i>
   </energy>
  </scstep>
  <scstep>
   <time name="total">    1.42    0.86</time>
   <energy>
    <i name="e_fr_energy">     -0.48762304 </i>
    <i name="e_wo_entrp">     -0.48762304 </i>
    <i name="e_0_energy">     -0.48762304 </i>
   </energy>
  </scstep>
  <scstep>
   <time name="total">    1.40    0.84</time>
   <energy>
    <i name="e_fr_energy">     -0.50392086 </i>
    <i name="e_wo_entrp">     -0.50392086 </i>
    <i name="e_0_energy">     -0.50392086 </i>
   </energy>
  </scstep>
  <scstep>
   <time name="total">    1.38    0.82</time>
   <energy>
    <i name="e_fr_energy">     -0.50676155 </i>
    <i name="e_wo_entrp">     -0.50676155 </i>
    <i name="e_0_energy">     -0.50676155 </i>
   </energy>
  </scstep>
  <scstep>
   <time name="total">    1.45    0.86</time>
   <energy>
    <i name="e_fr_energy">     -0.50700453 </i>
    <i name="e_wo_entrp">     -0.50700453 </i>
    <i name="e_0_energy">     -0.50700453 </i>
   </energy>
  </scstep>
  <scstep>
   <time name="total">    1.39    0.84</time>
   <energy>
    <i name="e_fr_energy">     -0.50727042 </i>
    <i name="e_wo_entrp">     -0.50727042 </i>
    <i name="e_0_energy">     -0.50727042 </i>
   </energy>
  </scstep>
  <scstep>
   <time name="total">    1.43    0.85</time>
   <energy>
    <i name="e_fr_energy">     -0.50729343 </i>
    <i name="e_wo_entrp">     -0.50729343 </i>
    <i name="e_0_energy">     -0.50729343 </i>
   </energy>
  </scstep>
  <scstep>
   <time name="total">    1.48    0.86</time>
   <energy>
    <i name="e_fr_energy">     -0.50729460 </i>
    <i name="e_wo_entrp">     -0.50729460 </i>
    <i name="e_0_energy">     -0.50729460 </i>
   </energy>
  </scstep>
  <scstep>
   <time name="total">    1.41    0.85</time>
   <energy>
    <i name="e_fr_energy">     -0.50729367 </i>
    <i name="e_wo_entrp">     -0.50729367 </i>
    <i name="e_0_energy">     -0.50729367 </i>
   </energy>
  </scstep>
  <scstep>
   <time name="total">    1.37    0.81</time>
   <energy>
    <i name="e_fr_energy">     -0.50729395 </i>
    <i name="e_wo_entrp">     -0.50729395 </i>
    <i name="e_0_energy">     -0.50729395 </i>
   </energy>
  </scstep>
  <scstep>
   <time name="total">    1.38    0.83</time>
   <energy>
    <i name="e_fr_energy">     -0.50729390 </i>
    <i name="e_wo_entrp">     -0.50729390 </i>
    <i name="e_0_energy">     -0.50729390 </i>
   </energy>
  </scstep>
  <scstep>
   <time name="total">    1.36    0.80</time>
   <energy>
    <i name="e_fr_energy">     -0.50729391 </i>
    <i name="e_wo_entrp">     -0.50729391 </i>
    <i name="e_0_energy">     -0.50729391 </i>
   </energy>
  </scstep>
  <kpoints>
   <generation param="Gamma">
    <v type="int" name="divisions">       4        4        4 </v>
    <v name="usershift">      0.00000000       0.00000000       0.00000000 </v>
    <v name="genvec1">      0.25000000       0.00000000       0.00000000 </v>
    <v name="genvec2">      0.00000000       0.25000000       0.00000000 </v>
    <v name="genvec3">      0.00000000       0.00000000       0.25000000 </v>
    <v name="shift">      0.00000000       0.00000000       0.00000000 </v>
   </generation>
   <varray name="kpointlist" >
    <v>       0.00000000       0.00000000       0.00000000 </v>
    <v>       0.25000000       0.00000000       0.00000000 </v>
    <v>       0.50000000       0.00000000       0.00000000 </v>
    <v>       0.25000000       0.25000000       0.00000000 </v>
    <v>       0.00000000       0.00000000       0.25000000 </v>
    <v>       0.25000000       0.00000000       0.25000000 </v>
    <v>       0.00000000       0.25000000       0.25000000 </v>
    <v>       0.50000000       0.00000000       0.25000000 </v>
    <v>       0.25000000       0.25000000       0.25000000 </v>
    <v>       0.00000000       0.00000000       0.50000000 </v>
    <v>       0.25000000       0.00000000       0.50000000 </v>
    <v>       0.50000000       0.00000000       0.50000000 </v>
    <v>       0.25000000       0.25000000       0.50000000 </v>
   </varray>
   <varray name="weights" >
    <v>       0.01562500 </v>
    <v>       0.09375000 </v>
    <v>       0.04687500 </v>
    <v>       0.09375000 </v>
    <v>       0.03125000 </v>
    <v>       0.09375000 </v>
    <v>       0.09375000 </v>
    <v>       0.09375000 </v>
    <v>       0.18750000 </v>
    <v>       0.01562500 </v>
    <v>       0.09375000 </v>
    <v>       0.04687500 </v>
    <v>       0.09375000 </v>
   </varray>
  </kpoints>
  <varray name="dielectric_dft" >
   <v>       2.48062356       0.00000000       0.00000000 </v>
   <v>       0.00000000       2.48062356       0.00000000 </v>
   <v>      -0.00000000      -0.00000000       2.51350073 </v>
  </varray>
  <varray name="epsilon" >
   <v>       2.48062356       0.00000000       0.00000000 </v>
   <v>       0.00000000       2.48062356       0.00000000 </v>
   <v>      -0.00000000      -0.00000000       2.51350073 </v>
  </varray>
  <kpoints>
   <generation param="Gamma">
    <v type="int" name="divisions">       4        4        4 </v>
    <v name="usershift">      0.00000000       0.00000000       0.00000000 </v>
    <v name="genvec1">      0.25000000       0.00000000       0.00000000 </v>
    <v name="genvec2">      0.00000000       0.25000000       0.00000000 </v>
    <v name="genvec3">      0.00000000       0.00000000       0.25000000 </v>
    <v name="shift">      0.00000000       0.00000000       0.00000000 </v>
   </generation>
   <varray name="kpointlist" >
    <v>       0.00000000       0.00000000       0.00000000 </v>
    <v>       0.25000000       0.00000000       0.00000000 </v>
    <v>       0.50000000       0.00000000       0.00000000 </v>
    <v>       0.25000000       0.25000000       0.00000000 </v>
    <v>       0.00000000       0.00000000       0.25000000 </v>
    <v>       0.25000000       0.00000000       0.25000000 </v>
    <v>       0.00000000       0.25000000       0.25000000 </v>
    <v>       0.50000000       0.00000000       0.25000000 </v>
    <v>       0.25000000       0.25000000       0.25000000 </v>
    <v>       0.00000000       0.00000000       0.50000000 </v>
    <v>       0.25000000       0.00000000       0.50000000 </v>
    <v>       0.50000000       0.00000000       0.50000000 </v>
    <v>       0.25000000       0.25000000       0.50000000 </v>
   </varray>
   <varray name="weights" >
    <v>       0.01562500 </v>
    <v>       0.09375000 </v>
    <v>       0.04687500 </v>
    <v>       0.09375000 </v>
    <v>       0.03125000 </v>
    <v>       0.09375000 </v>
    <v>       0.09375000 </v>
    <v>       0.09375000 </v>
    <v>       0.18750000 </v>
    <v>       0.01562500 </v>
    <v>       0.09375000 </v>
    <v>       0.04687500 </v>
    <v>       0.09375000 </v>
   </varray>
  </kpoints>
  <array name="born_charges" >
   <dimension dim="1">ion</dimension>
   <set>
    <v>       2.97966517       0.00000000      -0.00000000 </v>
    <v>       0.00000000       3.62100325      -0.32194469 </v>
    <v>       0.00000000       0.27843045       3.42528819 </v>
   </set>
   <set>
    <v>       3.46066873       0.27770754       0.27881228 </v>
    <v>       0.27770754       3.13999969       0.16097234 </v>
    <v>      -0.24112784      -0.13921523       3.42528819 </v>
   </set>
   <set>
    <v>       3.46066873      -0.27770754      -0.27881228 </v>
    <v>      -0.27770754       3.13999969       0.16097234 </v>
    <v>       0.24112784      -0.13921523       3.42528819 </v>
   </set>
   <set>
    <v>      -1.31150798      -0.49340918      -0.31011685 </v>
    <v>      -0.43681205      -1.98882623      -0.67875894 </v>
    <v>      -0.24402235      -0.72110726      -1.71264409 </v>
   </set>
   <set>
    <v>      -2.22229428      -0.08903066       0.74288091 </v>
    <v>      -0.03243353      -1.07803994       0.07081040 </v>
    <v>       0.74650838       0.14922407      -1.71264409 </v>
   </set>
   <set>
    <v>      -1.41669906       0.49754415      -0.43276406 </v>
    <v>       0.55414128      -1.88363515       0.60794854 </v>
    <v>      -0.50248603       0.57188318      -1.71264409 </v>
   </set>
   <set>
    <v>      -1.31150798       0.49340918       0.31011685 </v>
    <v>       0.43681205      -1.98882623      -0.67875894 </v>
    <v>       0.24402235      -0.72110726      -1.71264409 </v>
   </set>
   <set>
    <v>      -2.22229428       0.08903066      -0.74288091 </v>
    <v>       0.03243353      -1.07803994       0.07081040 </v>
    <v>      -0.74650838       0.14922407      -1.71264409 </v>
   </set>
   <set>
    <v>      -1.41669906      -0.49754415       0.43276406 </v>
    <v>      -0.55414128      -1.88363515       0.60794854 </v>
    <v>       0.50248603       0.57188318      -1.71264409 </v>
   </set>
  </array>
  <time name="totalsc">  232.87  128.26</time>
  <eigenvalues>
   <array>
    <dimension dim="1">band</dimension>
    <dimension dim="2">kpoint</dimension>
    <dimension dim="3">spin</dimension>
    <field>eigene</field>
    <field>occ</field>
    <set>
     <set comment="spin 1">
      <set comment="kpoint 1">
       <r>  -18.1722    1.0000 </r>
       <r>  -16.6201    1.0000 </r>
       <r>  -16.6201    1.0000 </r>
       <r>  -15.9526    1.0000 </r>
       <r>  -15.9420    1.0000 </r>
       <r>  -15.9420    1.0000 </r>
       <r>   -6.8787    1.0000 </r>
       <r>   -6.8787    1.0000 </r>
       <r>   -4.1472    1.0000 </r>
       <r>   -4.0613    1.0000 </r>
       <r>   -3.9123    1.0000 </r>
       <r>   -3.9123    1.0000 </r>
       <r>   -1.6868    1.0000 </r>
       <r>   -1.6868    1.0000 </r>
       <r>   -1.3738    1.0000 </r>
       <r>   -1.1489    1.0000 </r>
       <r>   -0.1550    1.0000 </r>
       <r>   -0.1550    1.0000 </r>
       <r>   -0.0990    1.0000 </r>
       <r>    0.2623    1.0000 </r>
       <r>    0.2623    1.0000 </r>
       <r>    0.4567    1.0000 </r>
       <r>    1.0040    1.0000 </r>
       <r>    1.0040    1.0000 </r>
       <r>    7.3236    0.0000 </r>
       <r>   10.6057    0.0000 </r>
       <r>   10.6057    0.0000 </r>
       <r>   11.2400    0.0000 </r>
       <r>   11.2400    0.0000 </r>
      </set>
      <set comment="kpoint 2">
       <r>  -17.9882    1.0000 </r>
       <r>  -16.8199    1.0000 </r>
       <r>  -16.5936    1.0000 </r>
       <r>  -16.0193    1.0000 </r>
       <r>  -15.9755    1.0000 </r>
       <r>  -15.9424    1.0000 </r>
       <r>   -6.9564    1.0000 </r>
       <r>   -6.5090    1.0000 </r>
       <r>   -4.2186    1.0000 </r>
       <r>   -4.1543    1.0000 </r>
       <r>   -4.0307    1.0000 </r>
       <r>   -3.6200    1.0000 </r>
       <r>   -1.8728    1.0000 </r>
       <r>   -1.5573    1.0000 </r>
       <r>   -1.3473    1.0000 </r>
       <r>   -0.8967    1.0000 </r>
       <r>   -0.6968    1.0000 </r>
       <r>   -0.2391    1.0000 </r>
       <r>   -0.1606    1.0000 </r>
       <r>    0.1797    1.0000 </r>
       <r>    0.2768    1.0000 </r>
       <r>    0.4212    1.0000 </r>
       <r>    1.0531    1.0000 </r>
       <r>    1.1413    1.0000 </r>
       <r>    8.2330    0.0000 </r>
       <r>   10.6680    0.0000 </r>
       <r>   10.7194    0.0000 </r>
       <r>   11.2085    0.0000 </r>
       <r>   11.4840    0.0000 </r>
      </set>
      <set comment="kpoint 3">
       <r>  -17.6653    1.0000 </r>
       <r>  -17.1821    1.0000 </r>
       <r>  -16.5645    1.0000 </r>
       <r>  -16.0455    1.0000 </r>
       <r>  -16.0009    1.0000 </r>
       <r>  -15.9681    1.0000 </r>
       <r>   -7.0299    1.0000 </r>
       <r>   -6.0438    1.0000 </r>
       <r>   -4.5572    1.0000 </r>
       <r>   -4.0956    1.0000 </r>
       <r>   -4.0879    1.0000 </r>
       <r>   -3.2829    1.0000 </r>
       <r>   -1.8231    1.0000 </r>
       <r>   -1.6221    1.0000 </r>
       <r>   -1.4349    1.0000 </r>
       <r>   -1.0023    1.0000 </r>
       <r>   -0.7928    1.0000 </r>
       <r>   -0.4798    1.0000 </r>
       <r>   -0.2882    1.0000 </r>
       <r>    0.1960    1.0000 </r>
       <r>    0.2827    1.0000 </r>
       <r>    0.5589    1.0000 </r>
       <r>    1.0152    1.0000 </r>
       <r>    1.2408    1.0000 </r>
       <r>    9.6354    0.0000 </r>
       <r>   10.3711    0.0000 </r>
       <r>   10.9671    0.0000 </r>
       <r>   10.9860    0.0000 </r>
       <r>   12.0022    0.0000 </r>
      </set>
      <set comment="kpoint 4">
       <r>  -17.6757    1.0000 </r>
       <r>  -17.1518    1.0000 </r>
       <r>  -16.5953    1.0000 </r>
       <r>  -16.0408    1.0000 </r>
       <r>  -15.9986    1.0000 </r>
       <r>  -15.9649    1.0000 </r>
       <r>   -7.0581    1.0000 </r>
       <r>   -5.9059    1.0000 </r>
       <r>   -4.8499    1.0000 </r>
       <r>   -4.0736    1.0000 </r>
       <r>   -3.9314    1.0000 </r>
       <r>   -3.2911    1.0000 </r>
       <r>   -1.7823    1.0000 </r>
       <r>   -1.6286    1.0000 </r>
       <r>   -1.4648    1.0000 </r>
       <r>   -0.8975    1.0000 </r>
       <r>   -0.8483    1.0000 </r>
       <r>   -0.4276    1.0000 </r>
       <r>   -0.2439    1.0000 </r>
       <r>   -0.0087    1.0000 </r>
       <r>    0.2527    1.0000 </r>
       <r>    0.6677    1.0000 </r>
       <r>    0.9797    1.0000 </r>
       <r>    1.2630    1.0000 </r>
       <r>    9.4760    0.0000 </r>
       <r>   10.7356    0.0000 </r>
       <r>   10.7719    0.0000 </r>
       <r>   11.4400    0.0000 </r>
       <r>   11.5787    0.0000 </r>
      </set>
      <set comment="kpoint 5">
       <r>  -18.0469    1.0000 </r>
       <r>  -17.1801    1.0000 </r>
       <r>  -16.1696    1.0000 </r>
       <r>  -15.9557    1.0000 </r>
       <r>  -15.9545    1.0000 </r>
       <r>  -15.9220    1.0000 </r>
       <r>   -7.6518    1.0000 </r>
       <r>   -5.8673    1.0000 </r>
       <r>   -4.3684    1.0000 </r>
       <r>   -4.1817    1.0000 </r>
       <r>   -4.1284    1.0000 </r>
       <r>   -3.5547    1.0000 </r>
       <r>   -1.7677    1.0000 </r>
       <r>   -1.4410    1.0000 </r>
       <r>   -1.3080    1.0000 </r>
       <r>   -0.9458    1.0000 </r>
       <r>   -0.4242    1.0000 </r>
       <r>   -0.2910    1.0000 </r>
       <r>   -0.1654    1.0000 </r>
       <r>   -0.1611    1.0000 </r>
       <r>    0.1781    1.0000 </r>
       <r>    0.6283    1.0000 </r>
       <r>    1.0945    1.0000 </r>
       <r>    1.1780    1.0000 </r>
       <r>    7.9361    0.0000 </r>
       <r>   10.4199    0.0000 </r>
       <r>   10.6287    0.0000 </r>
       <r>   10.6391    0.0000 </r>
       <r>   11.6552    0.0000 </r>
      </set>
      <set comment="kpoint 6">
       <r>  -17.8797    1.0000 </r>
       <r>  -17.1562    1.0000 </r>
       <r>  -16.3551    1.0000 </r>
       <r>  -16.0146    1.0000 </r>
       <r>  -15.9927    1.0000 </r>
       <r>  -15.9401    1.0000 </r>
       <r>   -7.3276    1.0000 </r>
       <r>   -5.9246    1.0000 </r>
       <r>   -4.6325    1.0000 </r>
       <r>   -4.0950    1.0000 </r>
       <r>   -3.8304    1.0000 </r>
       <r>   -3.6563    1.0000 </r>
       <r>   -1.9398    1.0000 </r>
       <r>   -1.4316    1.0000 </r>
       <r>   -1.3061    1.0000 </r>
       <r>   -0.9646    1.0000 </r>
       <r>   -0.6444    1.0000 </r>
       <r>   -0.3015    1.0000 </r>
       <r>   -0.1664    1.0000 </r>
       <r>    0.0579    1.0000 </r>
       <r>    0.3182    1.0000 </r>
       <r>    0.4872    1.0000 </r>
       <r>    1.0122    1.0000 </r>
       <r>    1.1504    1.0000 </r>
       <r>    8.7074    0.0000 </r>
       <r>   10.4489    0.0000 </r>
       <r>   10.7396    0.0000 </r>
       <r>   10.9596    0.0000 </r>
       <r>   11.7012    0.0000 </r>
      </set>
      <set comment="kpoint 7">
       <r>  -17.8825    1.0000 </r>
       <r>  -17.1427    1.0000 </r>
       <r>  -16.3865    1.0000 </r>
       <r>  -16.0154    1.0000 </r>
       <r>  -15.9591    1.0000 </r>
       <r>  -15.9518    1.0000 </r>
       <r>   -7.3299    1.0000 </r>
       <r>   -5.9295    1.0000 </r>
       <r>   -4.6333    1.0000 </r>
       <r>   -4.1178    1.0000 </r>
       <r>   -3.8578    1.0000 </r>
       <r>   -3.5713    1.0000 </r>
       <r>   -1.8928    1.0000 </r>
       <r>   -1.3912    1.0000 </r>
       <r>   -1.3596    1.0000 </r>
       <r>   -1.1083    1.0000 </r>
       <r>   -0.6943    1.0000 </r>
       <r>   -0.1993    1.0000 </r>
       <r>   -0.1047    1.0000 </r>
       <r>    0.0409    1.0000 </r>
       <r>    0.3865    1.0000 </r>
       <r>    0.4106    1.0000 </r>
       <r>    0.9051    1.0000 </r>
       <r>    1.2524    1.0000 </r>
       <r>    8.6703    0.0000 </r>
       <r>   10.5714    0.0000 </r>
       <r>   10.8862    0.0000 </r>
       <r>   11.0301    0.0000 </r>
       <r>   11.5538    0.0000 </r>
      </set>
      <set comment="kpoint 8">
       <r>  -17.6285    1.0000 </r>
       <r>  -17.1624    1.0000 </r>
       <r>  -16.6340    1.0000 </r>
       <r>  -16.0523    1.0000 </r>
       <r>  -16.0072    1.0000 </r>
       <r>  -15.9587    1.0000 </r>
       <r>   -6.9561    1.0000 </r>
       <r>   -5.9801    1.0000 </r>
       <r>   -4.8530    1.0000 </r>
       <r>   -4.0795    1.0000 </r>
       <r>   -3.7938    1.0000 </r>
       <r>   -3.4632    1.0000 </r>
       <r>   -1.8857    1.0000 </r>
       <r>   -1.7931    1.0000 </r>
       <r>   -1.2413    1.0000 </r>
       <r>   -1.0504    1.0000 </r>
       <r>   -0.5808    1.0000 </r>
       <r>   -0.4821    1.0000 </r>
       <r>   -0.1351    1.0000 </r>
       <r>    0.1305    1.0000 </r>
       <r>    0.3598    1.0000 </r>
       <r>    0.5971    1.0000 </r>
       <r>    0.8240    1.0000 </r>
       <r>    1.1736    1.0000 </r>
       <r>    9.9111    0.0000 </r>
       <r>   10.4303    0.0000 </r>
       <r>   10.8806    0.0000 </r>
       <r>   11.3082    0.0000 </r>
       <r>   11.8034    0.0000 </r>
      </set>
      <set comment="kpoint 9">
       <r>  -17.6303    1.0000 </r>
       <r>  -17.1632    1.0000 </r>
       <r>  -16.6254    1.0000 </r>
       <r>  -16.0430    1.0000 </r>
       <r>  -16.0188    1.0000 </r>
       <r>  -15.9639    1.0000 </r>
       <r>   -6.9642    1.0000 </r>
       <r>   -5.8799    1.0000 </r>
       <r>   -5.0208    1.0000 </r>
       <r>   -4.0433    1.0000 </r>
       <r>   -3.7652    1.0000 </r>
       <r>   -3.4781    1.0000 </r>
       <r>   -1.9204    1.0000 </r>
       <r>   -1.6278    1.0000 </r>
       <r>   -1.4078    1.0000 </r>
       <r>   -0.9250    1.0000 </r>
       <r>   -0.6630    1.0000 </r>
       <r>   -0.4519    1.0000 </r>
       <r>   -0.0611    1.0000 </r>
       <r>    0.0811    1.0000 </r>
       <r>    0.3173    1.0000 </r>
       <r>    0.6053    1.0000 </r>
       <r>    0.8638    1.0000 </r>
       <r>    1.1289    1.0000 </r>
       <r>    9.7424    0.0000 </r>
       <r>   10.6607    0.0000 </r>
       <r>   10.9942    0.0000 </r>
       <r>   11.3744    0.0000 </r>
       <r>   11.5191    0.0000 </r>
      </set>
      <set comment="kpoint 10">
       <r>  -17.6939    1.0000 </r>
       <r>  -17.6939    1.0000 </r>
       <r>  -15.9937    1.0000 </r>
       <r>  -15.9580    1.0000 </r>
       <r>  -15.9580    1.0000 </r>
       <r>  -15.9127    1.0000 </r>
       <r>   -7.9422    1.0000 </r>
       <r>   -4.9398    1.0000 </r>
       <r>   -4.9398    1.0000 </r>
       <r>   -4.2590    1.0000 </r>
[...]
       <r>    1.2162    1.0000 </r>
       <r>    9.3091    0.0000 </r>
       <r>    9.3091    0.0000 </r>
       <r>   10.4290    0.0000 </r>
       <r>   10.9926    0.0000 </r>
       <r>   10.9926    0.0000 </r>
      </set>
      <set comment="kpoint 11">
       <r>  -17.6425    1.0000 </r>
       <r>  -17.5019    1.0000 </r>
       <r>  -16.2501    1.0000 </r>
       <r>  -16.0276    1.0000 </r>
       <r>  -15.9734    1.0000 </r>
       <r>  -15.9421    1.0000 </r>
       <r>   -7.5166    1.0000 </r>
       <r>   -5.3541    1.0000 </r>
       <r>   -5.0120    1.0000 </r>
       <r>   -4.0962    1.0000 </r>
       <r>   -3.9724    1.0000 </r>
       <r>   -3.4586    1.0000 </r>
       <r>   -1.7495    1.0000 </r>
       <r>   -1.7304    1.0000 </r>
       <r>   -1.2092    1.0000 </r>
       <r>   -0.9355    1.0000 </r>
       <r>   -0.7527    1.0000 </r>
       <r>   -0.2539    1.0000 </r>
       <r>   -0.1571    1.0000 </r>
       <r>    0.0432    1.0000 </r>
       <r>    0.1863    1.0000 </r>
       <r>    0.7956    1.0000 </r>
       <r>    0.8297    1.0000 </r>
       <r>    1.1410    1.0000 </r>
       <r>    9.6768    0.0000 </r>
       <r>    9.8377    0.0000 </r>
       <r>   10.7198    0.0000 </r>
       <r>   11.0290    0.0000 </r>
       <r>   11.3869    0.0000 </r>
      </set>
      <set comment="kpoint 12">
       <r>  -17.5873    1.0000 </r>
       <r>  -17.1414    1.0000 </r>
       <r>  -16.7055    1.0000 </r>
       <r>  -16.0741    1.0000 </r>
       <r>  -15.9929    1.0000 </r>
       <r>  -15.9587    1.0000 </r>
       <r>   -6.8761    1.0000 </r>
       <r>   -5.9136    1.0000 </r>
       <r>   -5.0467    1.0000 </r>
       <r>   -3.9975    1.0000 </r>
       <r>   -3.7051    1.0000 </r>
       <r>   -3.6153    1.0000 </r>
       <r>   -1.9319    1.0000 </r>
       <r>   -1.9226    1.0000 </r>
       <r>   -1.1433    1.0000 </r>
       <r>   -0.8284    1.0000 </r>
       <r>   -0.7470    1.0000 </r>
       <r>   -0.2759    1.0000 </r>
       <r>    0.0231    1.0000 </r>
       <r>    0.1890    1.0000 </r>
       <r>    0.3982    1.0000 </r>
       <r>    0.4035    1.0000 </r>
       <r>    0.6988    1.0000 </r>
       <r>    1.1192    1.0000 </r>
       <r>   10.2293    0.0000 </r>
       <r>   10.7240    0.0000 </r>
       <r>   11.0128    0.0000 </r>
       <r>   11.1990    0.0000 </r>
       <r>   11.5400    0.0000 </r>
      </set>
      <set comment="kpoint 13">
       <r>  -17.5753    1.0000 </r>
       <r>  -17.1862    1.0000 </r>
       <r>  -16.6528    1.0000 </r>
       <r>  -16.0625    1.0000 </r>
       <r>  -15.9924    1.0000 </r>
       <r>  -15.9923    1.0000 </r>
       <r>   -6.8566    1.0000 </r>
       <r>   -5.8700    1.0000 </r>
       <r>   -5.1548    1.0000 </r>
       <r>   -3.8980    1.0000 </r>
       <r>   -3.7951    1.0000 </r>
       <r>   -3.6160    1.0000 </r>
       <r>   -1.9745    1.0000 </r>
       <r>   -1.7470    1.0000 </r>
       <r>   -1.2641    1.0000 </r>
       <r>   -0.9003    1.0000 </r>
       <r>   -0.6224    1.0000 </r>
       <r>   -0.4224    1.0000 </r>
       <r>    0.1490    1.0000 </r>
       <r>    0.2561    1.0000 </r>
       <r>    0.3284    1.0000 </r>
       <r>    0.5714    1.0000 </r>
       <r>    0.7157    1.0000 </r>
       <r>    0.9238    1.0000 </r>
       <r>   10.1776    0.0000 </r>
       <r>   10.6516    0.0000 </r>
       <r>   10.9606    0.0000 </r>
       <r>   11.3068    0.0000 </r>
       <r>   11.7197    0.0000 </r>
      </set>
     </set>
    </set>
   </array>
  </eigenvalues>
  <separator name="orbital magnetization" >
   <v name="MAGDIPOLOUT">      0.00000000      0.00000000      0.00000000</v>
  </separator>
  <dos>
   <i name="efermi">      1.78659982 </i>
   <total>
    <array>
     <dimension dim="1">gridpoints</dimension>
     <dimension dim="2">spin</dimension>
     <field>energy</field>
     <field>total</field>
     <field>integrated</field>
     <set>
      <set comment="spin 1">
       <r>   -19.6809     0.0000     0.0000 </r>
       <r>   -19.5703     0.0000     0.0000 </r>
       <r>   -19.4596     0.0000     0.0000 </r>
       <r>   -19.3490     0.0000     0.0000 </r>
       <r>   -19.2383     0.0000     0.0000 </r>
       <r>   -19.1277     0.0000     0.0000 </r>
       <r>   -19.0171     0.0000     0.0000 </r>
       <r>   -18.9064     0.0000     0.0000 </r>
       <r>   -18.7958     0.0000     0.0000 </r>
       <r>   -18.6851     0.0000     0.0000 </r>
       <r>   -18.5745     0.0000     0.0000 </r>
       <r>   -18.4639     0.0000     0.0000 </r>
       <r>   -18.3532     0.0015     0.0002 </r>
       <r>   -18.2426     0.0455     0.0052 </r>
       <r>   -18.1319     0.2561     0.0335 </r>
       <r>   -18.0213     0.9595     0.1397 </r>
       <r>   -17.9107     2.1806     0.3809 </r>
       <r>   -17.8000     2.2487     0.6297 </r>
       <r>   -17.6894     3.1564     0.9790 </r>
       <r>   -17.5787     6.7061     1.7209 </r>
       <r>   -17.4681     3.7415     2.1349 </r>
       <r>   -17.3575     0.7677     2.2198 </r>
       <r>   -17.2468     1.6680     2.4044 </r>
       <r>   -17.1362     7.3340     3.2158 </r>
       <r>   -17.0255     4.6993     3.7357 </r>
       <r>   -16.9149     0.5605     3.7977 </r>
       <r>   -16.8043     0.9833     3.9065 </r>
       <r>   -16.6936     2.7477     4.2105 </r>
       <r>   -16.5830     6.4521     4.9244 </r>
       <r>   -16.4724     3.7503     5.3393 </r>
       <r>   -16.3617     1.9995     5.5605 </r>
       <r>   -16.2511     2.2050     5.8045 </r>
       <r>   -16.1404     3.0251     6.1392 </r>
       <r>   -16.0298    16.1196     7.9227 </r>
       <r>   -15.9192    27.0897    10.9198 </r>
       <r>   -15.8085     9.2260    11.9406 </r>
       <r>   -15.6979     0.5327    11.9995 </r>
       <r>   -15.5872     0.0042    12.0000 </r>
       <r>   -15.4766     0.0000    12.0000 </r>
       <r>   -15.3660     0.0000    12.0000 </r>
       <r>   -15.2553     0.0000    12.0000 </r>
       <r>   -15.1447     0.0000    12.0000 </r>
       <r>   -15.0340     0.0000    12.0000 </r>
       <r>   -14.9234     0.0000    12.0000 </r>
       <r>   -14.8128     0.0000    12.0000 </r>
       <r>   -14.7021     0.0000    12.0000 </r>
       <r>   -14.5915     0.0000    12.0000 </r>
       <r>   -14.4808     0.0000    12.0000 </r>
       <r>   -14.3702     0.0000    12.0000 </r>
       <r>   -14.2596     0.0000    12.0000 </r>
       <r>   -14.1489     0.0000    12.0000 </r>
       <r>   -14.0383     0.0000    12.0000 </r>
       <r>   -13.9276     0.0000    12.0000 </r>
       <r>   -13.8170     0.0000    12.0000 </r>
       <r>   -13.7064     0.0000    12.0000 </r>
       <r>   -13.5957     0.0000    12.0000 </r>
       <r>   -13.4851     0.0000    12.0000 </r>
       <r>   -13.3744     0.0000    12.0000 </r>
       <r>   -13.2638     0.0000    12.0000 </r>
       <r>   -13.1532     0.0000    12.0000 </r>
       <r>   -13.0425     0.0000    12.0000 </r>
       <r>   -12.9319     0.0000    12.0000 </r>
       <r>   -12.8213     0.0000    12.0000 </r>
       <r>   -12.7106     0.0000    12.0000 </r>
       <r>   -12.6000     0.0000    12.0000 </r>
       <r>   -12.4893     0.0000    12.0000 </r>
       <r>   -12.3787     0.0000    12.0000 </r>
       <r>   -12.2681     0.0000    12.0000 </r>
       <r>   -12.1574     0.0000    12.0000 </r>
       <r>   -12.0468     0.0000    12.0000 </r>
       <r>   -11.9361     0.0000    12.0000 </r>
       <r>   -11.8255     0.0000    12.0000 </r>
       <r>   -11.7149     0.0000    12.0000 </r>
       <r>   -11.6042     0.0000    12.0000 </r>
       <r>   -11.4936     0.0000    12.0000 </r>
       <r>   -11.3829     0.0000    12.0000 </r>
       <r>   -11.2723     0.0000    12.0000 </r>
       <r>   -11.1617     0.0000    12.0000 </r>
       <r>   -11.0510     0.0000    12.0000 </r>
       <r>   -10.9404     0.0000    12.0000 </r>
       <r>   -10.8297     0.0000    12.0000 </r>
       <r>   -10.7191     0.0000    12.0000 </r>
       <r>   -10.6085     0.0000    12.0000 </r>
       <r>   -10.4978     0.0000    12.0000 </r>
       <r>   -10.3872     0.0000    12.0000 </r>
       <r>   -10.2765     0.0000    12.0000 </r>
       <r>   -10.1659     0.0000    12.0000 </r>
       <r>   -10.0553     0.0000    12.0000 </r>
       <r>    -9.9446     0.0000    12.0000 </r>
       <r>    -9.8340     0.0000    12.0000 </r>
       <r>    -9.7234     0.0000    12.0000 </r>
       <r>    -9.6127     0.0000    12.0000 </r>
       <r>    -9.5021     0.0000    12.0000 </r>
       <r>    -9.3914     0.0000    12.0000 </r>
       <r>    -9.2808     0.0000    12.0000 </r>
       <r>    -9.1702     0.0000    12.0000 </r>
       <r>    -9.0595     0.0000    12.0000 </r>
       <r>    -8.9489     0.0000    12.0000 </r>
       <r>    -8.8382     0.0000    12.0000 </r>
       <r>    -8.7276     0.0000    12.0000 </r>
       <r>    -8.6170     0.0000    12.0000 </r>
       <r>    -8.5063     0.0000    12.0000 </r>
       <r>    -8.3957     0.0000    12.0000 </r>
       <r>    -8.2850     0.0000    12.0000 </r>
       <r>    -8.1744     0.0001    12.0000 </r>
       <r>    -8.0638     0.0120    12.0013 </r>
       <r>    -7.9531     0.1118    12.0137 </r>
       <r>    -7.8425     0.1381    12.0290 </r>
       <r>    -7.7318     0.0947    12.0395 </r>
       <r>    -7.6212     0.4206    12.0860 </r>
       <r>    -7.5106     0.9793    12.1944 </r>
       <r>    -7.3999     1.2340    12.3309 </r>
       <r>    -7.2893     1.9633    12.5481 </r>
       <r>    -7.1786     1.0168    12.6606 </r>
       <r>    -7.0680     1.4044    12.8160 </r>
       <r>    -6.9574     4.6489    13.3303 </r>
       <r>    -6.8467     4.7348    13.8542 </r>
       <r>    -6.7361     1.4887    14.0189 </r>
       <r>    -6.6254     0.1948    14.0405 </r>
       <r>    -6.5148     0.7088    14.1189 </r>
       <r>    -6.4042     0.7856    14.2058 </r>
       <r>    -6.2935     0.1153    14.2186 </r>
       <r>    -6.1829     0.0268    14.2215 </r>
       <r>    -6.0723     0.5394    14.2812 </r>
       <r>    -5.9616     3.4728    14.6654 </r>
       <r>    -5.8510     6.9617    15.4357 </r>
       <r>    -5.7403     2.9275    15.7596 </r>
       <r>    -5.6297     0.1945    15.7811 </r>
       <r>    -5.5191     0.0182    15.7831 </r>
       <r>    -5.4084     0.3583    15.8227 </r>
       <r>    -5.2978     0.9958    15.9329 </r>
       <r>    -5.1871     0.9203    16.0347 </r>
       <r>    -5.0765     2.2109    16.2793 </r>
       <r>    -4.9659     3.9096    16.7119 </r>
       <r>    -4.8552     2.9766    17.0412 </r>
       <r>    -4.7446     1.8605    17.2471 </r>
       <r>    -4.6339     1.8155    17.4479 </r>
       <r>    -4.5233     1.9829    17.6673 </r>
       <r>    -4.4127     0.6086    17.7347 </r>
       <r>    -4.3020     0.7614    17.8189 </r>
       <r>    -4.1914     3.1241    18.1646 </r>
       <r>    -4.0807     8.8774    19.1467 </r>
       <r>    -3.9701     9.6736    20.2170 </r>
       <r>    -3.8595     6.6858    20.9567 </r>
       <r>    -3.7488     6.7745    21.7063 </r>
       <r>    -3.6382     5.6838    22.3351 </r>
       <r>    -3.5275     5.7069    22.9665 </r>
       <r>    -3.4169     5.0523    23.5255 </r>
       <r>    -3.3063     2.6240    23.8158 </r>
       <r>    -3.1956     1.4193    23.9728 </r>
       <r>    -3.0850     0.2402    23.9994 </r>
       <r>    -2.9743     0.0052    24.0000 </r>
       <r>    -2.8637     0.0000    24.0000 </r>
       <r>    -2.7531     0.0000    24.0000 </r>
       <r>    -2.6424     0.0000    24.0000 </r>
       <r>    -2.5318     0.0000    24.0000 </r>
       <r>    -2.4212     0.0000    24.0000 </r>
       <r>    -2.3105     0.0000    24.0000 </r>
       <r>    -2.1999     0.0017    24.0002 </r>
       <r>    -2.0892     0.1741    24.0194 </r>
       <r>    -1.9786     2.7127    24.3196 </r>
       <r>    -1.8680     7.9891    25.2035 </r>
       <r>    -1.7573     8.1051    26.1002 </r>
       <r>    -1.6467     6.8094    26.8536 </r>
       <r>    -1.5360     5.3226    27.4425 </r>
       <r>    -1.4254     6.4035    28.1510 </r>
       <r>    -1.3148     8.4812    29.0893 </r>
       <r>    -1.2041     5.8982    29.7419 </r>
       <r>    -1.0935     3.8823    30.1714 </r>
       <r>    -0.9828     4.8973    30.7133 </r>
       <r>    -0.8722     8.4210    31.6450 </r>
       <r>    -0.7616     6.9187    32.4104 </r>
       <r>    -0.6509     7.4034    33.2295 </r>
       <r>    -0.5403     6.2953    33.9261 </r>
       <r>    -0.4296     6.2761    34.6204 </r>
       <r>    -0.3190     5.9258    35.2761 </r>
       <r>    -0.2084     8.1043    36.1727 </r>
       <r>    -0.0977     9.8342    37.2608 </r>
       <r>     0.0129     8.1639    38.1640 </r>
       <r>     0.1236     8.9524    39.1545 </r>
       <r>     0.2342     9.4943    40.2049 </r>
       <r>     0.3448    10.7160    41.3906 </r>
       <r>     0.4555     8.6918    42.3522 </r>
       <r>     0.5661     5.7889    42.9927 </r>
       <r>     0.6767     6.2785    43.6873 </r>
       <r>     0.7874     5.2865    44.2722 </r>
       <r>     0.8980     6.6806    45.0114 </r>
       <r>     1.0087     6.6889    45.7514 </r>
       <r>     1.1193     7.8650    46.6216 </r>
       <r>     1.2299     8.2473    47.5341 </r>
       <r>     1.3406     3.6808    47.9413 </r>
       <r>     1.4512     0.5179    47.9986 </r>
       <r>     1.5619     0.0122    48.0000 </r>
       <r>     1.6725     0.0000    48.0000 </r>
       <r>     1.7831     0.0000    48.0000 </r>
       <r>     1.8938     0.0000    48.0000 </r>
       <r>     2.0044     0.0000    48.0000 </r>
       <r>     2.1151     0.0000    48.0000 </r>
       <r>     2.2257     0.0000    48.0000 </r>
       <r>     2.3363     0.0000    48.0000 </r>
       <r>     2.4470     0.0000    48.0000 </r>
       <r>     2.5576     0.0000    48.0000 </r>
       <r>     2.6683     0.0000    48.0000 </r>
       <r>     2.7789     0.0000    48.0000 </r>
       <r>     2.8895     0.0000    48.0000 </r>
       <r>     3.0002     0.0000    48.0000 </r>
       <r>     3.1108     0.0000    48.0000 </r>
       <r>     3.2215     0.0000    48.0000 </r>
       <r>     3.3321     0.0000    48.0000 </r>
       <r>     3.4427     0.0000    48.0000 </r>
       <r>     3.5534     0.0000    48.0000 </r>
       <r>     3.6640     0.0000    48.0000 </r>
       <r>     3.7747     0.0000    48.0000 </r>
       <r>     3.8853     0.0000    48.0000 </r>
       <r>     3.9959     0.0000    48.0000 </r>
       <r>     4.1066     0.0000    48.0000 </r>
       <r>     4.2172     0.0000    48.0000 </r>
       <r>     4.3278     0.0000    48.0000 </r>
       <r>     4.4385     0.0000    48.0000 </r>
       <r>     4.5491     0.0000    48.0000 </r>
       <r>     4.6598     0.0000    48.0000 </r>
       <r>     4.7704     0.0000    48.0000 </r>
       <r>     4.8810     0.0000    48.0000 </r>
       <r>     4.9917     0.0000    48.0000 </r>
       <r>     5.1023     0.0000    48.0000 </r>
       <r>     5.2130     0.0000    48.0000 </r>
       <r>     5.3236     0.0000    48.0000 </r>
       <r>     5.4342     0.0000    48.0000 </r>
       <r>     5.5449     0.0000    48.0000 </r>
       <r>     5.6555     0.0000    48.0000 </r>
       <r>     5.7662     0.0000    48.0000 </r>
       <r>     5.8768     0.0000    48.0000 </r>
       <r>     5.9874     0.0000    48.0000 </r>
       <r>     6.0981     0.0000    48.0000 </r>
       <r>     6.2087     0.0000    48.0000 </r>
       <r>     6.3194     0.0000    48.0000 </r>
       <r>     6.4300     0.0000    48.0000 </r>
       <r>     6.5406     0.0000    48.0000 </r>
       <r>     6.6513     0.0000    48.0000 </r>
       <r>     6.7619     0.0000    48.0000 </r>
       <r>     6.8726     0.0000    48.0000 </r>
       <r>     6.9832     0.0000    48.0000 </r>
       <r>     7.0938     0.0002    48.0000 </r>
       <r>     7.2045     0.0129    48.0014 </r>
       <r>     7.3151     0.1148    48.0141 </r>
       <r>     7.4257     0.1337    48.0289 </r>
       <r>     7.5364     0.0206    48.0312 </r>
       <r>     7.6470     0.0004    48.0313 </r>
       <r>     7.7577     0.0033    48.0316 </r>
       <r>     7.8683     0.0922    48.0418 </r>
       <r>     7.9789     0.3160    48.0768 </r>
       <r>     8.0896     0.1811    48.0968 </r>
       <r>     8.2002     0.5175    48.1541 </r>
       <r>     8.3109     0.9203    48.2559 </r>
       <r>     8.4215     0.2232    48.2806 </r>
       <r>     8.5321     0.0602    48.2872 </r>
       <r>     8.6428     0.8425    48.3804 </r>
       <r>     8.7534     1.8534    48.5855 </r>
       <r>     8.8641     0.6116    48.6532 </r>
       <r>     8.9747     0.0277    48.6562 </r>
       <r>     9.0853     0.0006    48.6563 </r>
       <r>     9.1960     0.0306    48.6597 </r>
       <r>     9.3066     0.2575    48.6882 </r>
       <r>     9.4173     0.5859    48.7530 </r>
       <r>     9.5279     1.0807    48.8726 </r>
       <r>     9.6385     1.4683    49.0350 </r>
       <r>     9.7492     3.0945    49.3774 </r>
       <r>     9.8598     2.9528    49.7041 </r>
       <r>     9.9705     1.7196    49.8943 </r>
       <r>    10.0811     0.5372    49.9538 </r>
       <r>    10.1917     1.0927    50.0747 </r>
       <r>    10.3024     1.3789    50.2272 </r>
       <r>    10.4130     2.1358    50.4635 </r>
       <r>    10.5237     3.1483    50.8119 </r>
       <r>    10.6343     5.2098    51.3883 </r>
       <r>    10.7449     9.0129    52.3854 </r>
       <r>    10.8556     6.1095    53.0614 </r>
       <r>    10.9662     6.6311    53.7951 </r>
       <r>    11.0768     7.2124    54.5930 </r>
       <r>    11.1875     2.9530    54.9197 </r>
       <r>    11.2981     3.7147    55.3307 </r>
       <r>    11.4088     5.7200    55.9636 </r>
       <r>    11.5194     6.3414    56.6652 </r>
       <r>    11.6300     5.2663    57.2479 </r>
       <r>    11.7407     3.3411    57.6175 </r>
       <r>    11.8513     2.1179    57.8518 </r>
       <r>    11.9620     0.7111    57.9305 </r>
       <r>    12.0726     0.4926    57.9850 </r>
       <r>    12.1832     0.1310    57.9995 </r>
       <r>    12.2939     0.0044    58.0000 </r>
       <r>    12.4045     0.0000    58.0000 </r>
       <r>    12.5152     0.0000    58.0000 </r>
       <r>    12.6258     0.0000    58.0000 </r>
       <r>    12.7364     0.0000    58.0000 </r>
       <r>    12.8471     0.0000    58.0000 </r>
       <r>    12.9577     0.0000    58.0000 </r>
       <r>    13.0684     0.0000    58.0000 </r>
       <r>    13.1790     0.0000    58.0000 </r>
       <r>    13.2896     0.0000    58.0000 </r>
       <r>    13.4003     0.0000    58.0000 </r>
       <r>    13.5109     0.0000    58.0000 </r>
      </set>
     </set>
    </array>
   </total>
  </dos>
 </calculation>
 <structure name="finalpos" >
  <crystal>
   <varray name="basis" >
    <v>       4.87342988       0.00000000       0.00000000 </v>
    <v>      -2.43671494       4.22051408       0.00000000 </v>
    <v>       0.00000000       0.00000000       5.37418982 </v>
   </varray>
   <i name="volume">    110.53837516 </i>
   <varray name="rec_basis" >
    <v>       0.20519429       0.11846898      -0.00000000 </v>
    <v>       0.00000000       0.23693796       0.00000000 </v>
    <v>       0.00000000      -0.00000000       0.18607456 </v>
   </varray>
  </crystal>
  <varray name="positions" >
   <v>       0.46484021       0.00000000       0.66666667 </v>
   <v>       1.00000000       0.46484021       0.33333333 </v>
   <v>       0.53515979       0.53515979       1.00000000 </v>
   <v>       0.13555394       0.72394921       0.55429790 </v>
   <v>       0.27605079       0.41160473       0.22096457 </v>
   <v>       0.58839527       0.86444606       0.88763123 </v>
   <v>       0.41160473       0.27605079       0.77903543 </v>
   <v>       0.86444606       0.58839527       0.11236877 </v>
   <v>       0.72394921       0.13555394       0.44570210 </v>
  </varray>
 </structure>
</modeling>
