<?xml version="1.0" encoding="ISO-8859-1"?>
<modeling>
 <generator>
  <i name="program" type="string">vasp </i>
  <i name="version" type="string">6.4.1  </i>
  <i name="subversion" type="string">05Apr23 (build Sep  6 2023 20:49:31) complex                          parallel </i>
  <i name="platform" type="string">LinuxNV </i>
  <i name="date" type="string">2023 10 19 </i>
  <i name="time" type="string">14:05:35 </i>
 </generator>
 <incar>
  <i type="string" name="PREC">Accurate</i>
  <i type="string" name="ALGO">Fast</i>
  <i name="EDIFF">      0.00000001</i>
  <i name="ENCUT">    500.00000000</i>
  <i type="int" name="ISMEAR">     0</i>
  <i name="SIGMA">      0.10000000</i>
  <i type="logical" name="LEPSILON"> T  </i>
 </incar>
 <primitive_cell>
  <structure name="primitive_cell" >
   <crystal>
    <varray name="basis" >
     <v>       4.87342988       0.00000000       0.00000000 </v>
     <v>      -2.43671494       4.22051408       0.00000000 </v>
     <v>       0.00000000       0.00000000       5.37418982 </v>
    </varray>
    <i name="volume">    110.53837516 </i>
    <varray name="rec_basis" >
     <v>       0.20519429       0.11846898      -0.00000000 </v>
     <v>       0.00000000       0.23693796       0.00000000 </v>
     <v>       0.00000000      -0.00000000       0.18607456 </v>
    </varray>
   </crystal>
   <varray name="positions" >
    <v>       0.46478891       0.00000000       0.66666667 </v>
    <v>       0.00000000       0.46478891       0.33333333 </v>
    <v>       0.53521109       0.53521109       0.00000000 </v>
    <v>       0.13560018       0.72415721       0.55409589 </v>
    <v>       0.27584279       0.41144297       0.22076255 </v>
    <v>       0.58855703       0.86439982       0.88742922 </v>
    <v>       0.41144297       0.27584279       0.77923745 </v>
    <v>       0.86439982       0.58855703       0.11257078 </v>
    <v>       0.72415721       0.13560018       0.44590411 </v>
   </varray>
  </structure>
  <varray name="primitive_index" >
   <v type="int" >        1 </v>
   <v type="int" >        2 </v>
   <v type="int" >        3 </v>
   <v type="int" >        4 </v>
   <v type="int" >        5 </v>
   <v type="int" >        6 </v>
   <v type="int" >        7 </v>
   <v type="int" >        8 </v>
   <v type="int" >        9 </v>
  </varray>
 </primitive_cell>
 <kpoints>
  <generation param="Gamma">
   <v type="int" name="divisions">       4        4        4 </v>
   <v name="usershift">      0.00000000       0.00000000       0.00000000 </v>
   <v name="genvec1">      0.25000000       0.00000000       0.00000000 </v>
   <v name="genvec2">      0.00000000       0.25000000       0.00000000 </v>
   <v name="genvec3">      0.00000000       0.00000000       0.25000000 </v>
   <v name="shift">      0.00000000       0.00000000       0.00000000 </v>
  </generation>
  <varray name="kpointlist" >
   <v>       0.00000000       0.00000000       0.00000000 </v>
   <v>       0.25000000       0.00000000       0.00000000 </v>
   <v>       0.50000000       0.00000000       0.00000000 </v>
   <v>       0.25000000       0.25000000       0.00000000 </v>
   <v>       0.00000000       0.00000000       0.25000000 </v>
   <v>       0.25000000       0.00000000       0.25000000 </v>
   <v>       0.00000000       0.25000000       0.25000000 </v>
   <v>       0.50000000       0.00000000       0.25000000 </v>
   <v>       0.25000000       0.25000000       0.25000000 </v>
   <v>       0.00000000       0.00000000       0.50000000 </v>
   <v>       0.25000000       0.00000000       0.50000000 </v>
   <v>       0.50000000       0.00000000       0.50000000 </v>
   <v>       0.25000000       0.25000000       0.50000000 </v>
  </varray>
  <varray name="weights" >
   <v>       0.01562500 </v>
   <v>       0.09375000 </v>
   <v>       0.04687500 </v>
   <v>       0.09375000 </v>
   <v>       0.03125000 </v>
   <v>       0.09375000 </v>
   <v>       0.09375000 </v>
   <v>       0.09375000 </v>
   <v>       0.18750000 </v>
   <v>       0.01562500 </v>
   <v>       0.09375000 </v>
   <v>       0.04687500 </v>
   <v>       0.09375000 </v>
  </varray>
 </kpoints>
 <parameters>
  <separator name="general" >
   <i type="string" name="SYSTEM">unknown system</i>
   <i type="logical" name="LCOMPAT"> F  </i>
  </separator>
  <separator name="electronic" >
   <i type="string" name="PREC">accura</i>
   <i name="ENMAX">    500.00000000</i>
   <i name="ENAUG">    605.39200000</i>
   <i name="EDIFF">      0.00000001</i>
   <i type="int" name="IALGO">    68</i>
   <i type="int" name="IWAVPR">    10</i>
   <i type="int" name="NBANDS">    29</i>
   <i type="int" name="NBANDSLOW">    -1</i>
   <i type="int" name="NBANDSHIGH">    -1</i>
   <i name="NELECT">     48.00000000</i>
   <i type="int" name="TURBO">     0</i>
   <i type="int" name="IRESTART">     0</i>
   <i type="int" name="NREBOOT">     0</i>
   <i type="int" name="NMIN">     0</i>
   <i name="EREF">      0.00000000</i>
   <separator name="electronic smearing" >
    <i type="int" name="ISMEAR">     0</i>
    <i name="SIGMA">      0.10000000</i>
    <i name="KSPACING">      0.50000000</i>
    <i type="logical" name="KGAMMA"> T  </i>
    <i type="logical" name="KBLOWUP"> T  </i>
   </separator>
   <separator name="electronic projectors" >
    <i type="logical" name="LREAL"> F  </i>
    <v name="ROPT">      0.00000000      0.00000000</v>
    <i type="int" name="LMAXPAW">  -100</i>
    <i type="int" name="LMAXMIX">     2</i>
    <i type="logical" name="NLSPLINE"> F  </i>
   </separator>
   <separator name="electronic startup" >
    <i type="int" name="ISTART">     0</i>
    <i type="int" name="ICHARG">     2</i>
    <i type="int" name="INIWAV">     1</i>
   </separator>
   <separator name="electronic spin" >
    <i type="int" name="ISPIN">     1</i>
    <i type="logical" name="LNONCOLLINEAR"> F  </i>
    <v name="MAGMOM">      1.00000000      1.00000000      1.00000000      1.00000000      1.00000000      1.00000000      1.00000000      1.00000000      1.00000000</v>
    <i name="NUPDOWN">     -1.00000000</i>
    <i type="logical" name="LSORBIT"> F  </i>
    <v name="SAXIS">      0.00000000      0.00000000      1.00000000</v>
    <i type="logical" name="LSPIRAL"> F  </i>
    <v name="QSPIRAL">      0.00000000      0.00000000      0.00000000</v>
    <i type="logical" name="LZEROZ"> F  </i>
   </separator>
   <separator name="electronic exchange-correlation" >
    <i type="logical" name="LASPH"> F  </i>
    <i type="logical" name="LMETAGGA"> F  </i>
   </separator>
   <separator name="electronic convergence" >
    <i type="int" name="NELM">    60</i>
    <i type="int" name="NELMDL">    -5</i>
    <i type="int" name="NELMIN">     2</i>
    <i name="ENINI">    500.00000000</i>
    <separator name="electronic convergence detail" >
     <i type="logical" name="LDIAG"> T  </i>
     <i type="logical" name="LSUBROT"> F  </i>
     <i name="WEIMIN">      0.00000000</i>
     <i name="EBREAK">      0.00000000</i>
     <i name="DEPER">      0.30000000</i>
     <i type="int" name="NRMM">     4</i>
     <i name="TIME">      0.40000000</i>
    </separator>
   </separator>
   <separator name="electronic mixer" >
    <i name="AMIX">      0.40000000</i>
    <i name="BMIX">      1.00000000</i>
    <i name="AMIN">      0.10000000</i>
    <i name="AMIX_MAG">      1.60000000</i>
    <i name="BMIX_MAG">      1.00000000</i>
    <separator name="electronic mixer details" >
     <i type="int" name="IMIX">     4</i>
     <i type="logical" name="MIXFIRST"> F  </i>
     <i type="int" name="MAXMIX">   -45</i>
     <i name="WC">    100.00000000</i>
     <i type="int" name="INIMIX">     1</i>
     <i type="int" name="MIXPRE">     1</i>
     <i type="int" name="MREMOVE">     5</i>
    </separator>
   </separator>
   <separator name="electronic dipolcorrection" >
    <i type="logical" name="LDIPOL"> F  </i>
    <i type="logical" name="LMONO"> F  </i>
    <i type="int" name="IDIPOL">     0</i>
    <i name="EPSILON">      1.00000000</i>
    <v name="DIPOL">   -100.00000000   -100.00000000   -100.00000000</v>
    <i name="EFIELD">      0.00000000</i>
   </separator>
  </separator>
  <separator name="grids" >
   <i type="int" name="NGX">    36</i>
   <i type="int" name="NGY">    36</i>
   <i type="int" name="NGZ">    40</i>
   <i type="int" name="NGXF">    72</i>
   <i type="int" name="NGYF">    72</i>
   <i type="int" name="NGZF">    80</i>
   <i type="logical" name="ADDGRID"> F  </i>
  </separator>
  <separator name="ionic" >
   <i type="int" name="NSW">     0</i>
   <i type="int" name="IBRION">    -1</i>
   <i type="int" name="MDALGO">     0</i>
   <i type="int" name="ISIF">     2</i>
   <i name="PSTRESS">      0.00000000</i>
   <i name="EDIFFG">      0.00000010</i>
   <i type="int" name="NFREE">     0</i>
   <i name="POTIM">      0.50000000</i>
   <i name="SMASS">     -3.00000000</i>
   <i name="SCALEE">      1.00000000</i>
  </separator>
  <separator name="ionic md" >
   <i name="TEBEG">      0.00010000</i>
   <i name="TEEND">      0.00010000</i>
   <i type="int" name="NBLOCK">     1</i>
   <i type="int" name="KBLOCK">     1</i>
   <i type="int" name="NPACO">   256</i>
   <i name="APACO">     10.00000000</i>
  </separator>
  <separator name="symmetry" >
   <i type="int" name="ISYM">     2</i>
   <i name="SYMPREC">      0.00001000</i>
  </separator>
  <separator name="dos" >
   <i type="int" name="LORBIT">     0</i>
   <v name="RWIGS">     -1.00000000     -1.00000000</v>
   <i type="int" name="NEDOS">   301</i>
   <i name="EMIN">     10.00000000</i>
   <i name="EMAX">    -10.00000000</i>
   <i name="EFERMI">      0.00000000</i>
  </separator>
  <separator name="writing" >
   <i type="int" name="NWRITE">     2</i>
   <i type="logical" name="LWAVE"> T  </i>
   <i type="logical" name="LDOWNSAMPLE"> F  </i>
   <i type="logical" name="LCHARG"> T  </i>
   <i type="logical" name="LPARD"> F  </i>
   <i type="logical" name="LVTOT"> F  </i>
   <i type="logical" name="LVHAR"> F  </i>
   <i type="logical" name="LELF"> F  </i>
   <i type="logical" name="LOPTICS"> F  </i>
   <v name="STM">      0.00000000      0.00000000      0.00000000      0.00000000      0.00000000      0.00000000      0.00000000</v>
  </separator>
  <separator name="performance" >
   <i type="int" name="NPAR">     1</i>
   <i type="int" name="NSIM">     4</i>
   <i type="int" name="NBLK">    -1</i>
   <i type="logical" name="LPLANE"> T  </i>
   <i type="logical" name="LSCALAPACK"> T  </i>
   <i type="logical" name="LSCAAWARE"> F  </i>
   <i type="logical" name="LSCALU"> F  </i>
   <i type="logical" name="LASYNC"> F  </i>
   <i type="logical" name="LORBITALREAL"> F  </i>
  </separator>
  <separator name="miscellaneous" >
   <i type="int" name="IDIOT">     3</i>
   <i type="int" name="PHON_NSTRUCT">    -1</i>
   <i type="logical" name="LMUSIC"> F  </i>
   <v name="POMASS">     28.08500000     16.00000000</v>
   <v name="DARWINR">      0.00000000      0.00000000</v>
   <v name="DARWINV">      1.00000000      1.00000000</v>
   <i type="logical" name="LCORR"> T  </i>
  </separator>
  <i type="logical" name="GGA_COMPAT"> T  </i>
  <i type="logical" name="LBERRY"> F  </i>
  <i type="int" name="ICORELEVEL">     0</i>
  <i type="logical" name="LDAU"> F  </i>
  <i type="int" name="I_CONSTRAINED_M">     0</i>
  <separator name="electronic exchange-correlation" >
   <i type="string" name="GGA">--</i>
   <i type="int" name="VOSKOWN">     0</i>
   <i type="logical" name="LHFCALC"> F  </i>
   <i type="string" name="PRECFOCK"></i>
   <i type="logical" name="LSYMGRAD"> F  </i>
   <i type="logical" name="LHFONE"> F  </i>
   <i type="logical" name="LRHFCALC"> F  </i>
   <i type="logical" name="LTHOMAS"> F  </i>
   <i type="logical" name="LMODELHF"> F  </i>
   <i type="logical" name="LFOCKACE"> F  </i>
   <i name="ENCUT4O">     -1.00000000</i>
   <i type="int" name="EXXOEP">     0</i>
   <i type="int" name="FOURORBIT">     0</i>
   <i name="AEXX">      0.00000000</i>
   <i name="HFALPHA">      0.00000000</i>
   <i name="MCALPHA">      0.00000000</i>
   <i name="ALDAX">      1.00000000</i>
   <i name="AGGAX">      1.00000000</i>
   <i name="ALDAC">      1.00000000</i>
   <i name="AGGAC">      1.00000000</i>
   <i type="int" name="NKREDX">     1</i>
   <i type="int" name="NKREDY">     1</i>
   <i type="int" name="NKREDZ">     1</i>
   <i type="logical" name="SHIFTRED"> F  </i>
   <i type="logical" name="ODDONLY"> F  </i>
   <i type="logical" name="EVENONLY"> F  </i>
   <i type="int" name="LMAXFOCK">     0</i>
   <i type="int" name="NMAXFOCKAE">     0</i>
   <i type="logical" name="LFOCKAEDFT"> F  </i>
   <i name="HFSCREEN">      0.00000000</i>
   <i name="HFSCREENC">      0.00000000</i>
   <i type="int" name="NBANDSGWLOW">     0</i>
  </separator>
  <separator name="vdW DFT" >
   <i type="logical" name="LUSE_VDW"> F  </i>
   <i type="int" name="IVDW_NL">     1</i>
   <i type="logical" name="LSPIN_VDW"> F  </i>
   <i name="Zab_VDW">     -0.84910000</i>
   <i name="PARAM1">      0.12340000</i>
   <i name="PARAM2">      1.00000000</i>
   <i name="PARAM3">      0.00000000</i>
  </separator>
  <separator name="model GW" >
   <i type="int" name="MODEL_GW">     0</i>
   <i name="MODEL_EPS0">      7.36922501</i>
   <i name="MODEL_ALPHA">      1.00000000</i>
  </separator>
  <separator name="linear response parameters" >
   <i type="logical" name="LEPSILON"> T  </i>
   <i type="logical" name="LRPA"> F  </i>
   <i type="logical" name="LNABLA"> F  </i>
   <i type="logical" name="LVEL"> F  </i>
   <i name="CSHIFT">      0.10000000</i>
   <i name="OMEGAMAX">     -1.00000000</i>
   <i name="DEG_THRESHOLD">      0.00200000</i>
   <i name="RTIME">     -0.10000000</i>
   <i name="WPLASMAI">      0.00000000</i>
   <v name="DFIELD">      0.00000000      0.00000000      0.00000000</v>
   <v name="WPLASMA">      0.00000000      0.00000000      0.00000000      0.00000000      0.00000000      0.00000000      0.00000000      0.00000000      0.00000000</v>
  </separator>
  <separator name="orbital magnetization" >
   <i type="logical" name="NUCIND"> F  </i>
   <v name="MAGPOS">      0.00000000      0.00000000      0.00000000</v>
   <i type="logical" name="LNICSALL"> T  </i>
   <i type="logical" name="ORBITALMAG"> F  </i>
   <i type="logical" name="LMAGBLOCH"> F  </i>
   <i type="logical" name="LCHIMAG"> F  </i>
   <i type="logical" name="LGAUGE"> T  </i>
   <i type="int" name="MAGATOM">     0</i>
   <v name="MAGDIPOL">      0.00000000      0.00000000      0.00000000</v>
   <v name="AVECCONST">      0.00000000      0.00000000      0.00000000</v>
  </separator>
  <separator name="response functions" >
   <i type="logical" name="LALL_IN_ONE"> F  </i>
   <i type="int" name="IALL_IN_ONE">    -1</i>
   <i type="int" name="NBANDS_WAVE">    -1</i>
   <i type="logical" name="LFINITE_TEMPERATURE"> F  </i>
   <i type="logical" name="LADDER"> F  </i>
   <i type="logical" name="LRPAFORCE"> F  </i>
   <i type="logical" name="LFXC"> F  </i>
   <i type="logical" name="LHARTREE"> T  </i>
   <i type="int" name="IBSE">     0</i>
   <v type="int" name="KPOINT">    -1     0     0     0</v>
   <i type="logical" name="LTCTC"> F  </i>
   <i type="logical" name="LTCTE"> F  </i>
   <i type="logical" name="LTETE"> F  </i>
   <i type="logical" name="LTRIPLET"> F  </i>
   <i type="logical" name="LFXCEPS"> F  </i>
   <i type="logical" name="LFXHEG"> F  </i>
   <i type="int" name="NATURALO">     2</i>
   <i type="logical" name="LHOLEGF"> F  </i>
   <i type="logical" name="L2ORDER"> F  </i>
   <i type="logical" name="LDMP1"> F  </i>
   <i type="logical" name="LMP2LT"> F  </i>
   <i type="logical" name="LSMP2LT"> F  </i>
   <i type="logical" name="LGWLF"> F  </i>
   <i name="ENCUTGW">     -1.60000002</i>
   <i name="ENCUTGWSOFT">     -1.60000002</i>
   <i name="ENCUTLF">     -1.00000000</i>
   <i type="logical" name="LESF_SPLINES"> F  </i>
   <i type="int" name="LMAXMP2">    -1</i>
   <i name="SCISSOR">      0.00000000</i>
   <i type="int" name="NOMEGA">     0</i>
   <i type="int" name="NOMEGAR">     0</i>
   <i type="int" name="NBANDSGW">    -1</i>
   <i type="int" name="NBANDSO">    -1</i>
   <i type="int" name="NBANDSV">    -1</i>
   <i type="int" name="NELMGW">     1</i>
   <i type="int" name="NELMHF">     1</i>
   <i type="int" name="DIM">     3</i>
   <i type="int" name="IESPILON">     4</i>
   <i type="int" name="ANTIRES">     0</i>
   <i name="OMEGAMAX">    -30.00000000</i>
   <i name="OMEGAMIN">    -30.00000000</i>
   <i name="OMEGATL">   -200.00000000</i>
   <i type="int" name="OMEGAGRID">     0</i>
   <i name="CSHIFT">     -0.10000000</i>
   <i type="logical" name="LSELFENERGY"> F  </i>
   <i type="logical" name="LSPECTRAL"> F  </i>
   <i type="logical" name="LSPECTRALGW"> F  </i>
   <i type="logical" name="LSINGLES"> F  </i>
   <i type="logical" name="LFERMIGW"> F  </i>
   <i type="logical" name="ODDONLYGW"> F  </i>
   <i type="logical" name="EVENONLYGW"> F  </i>
   <i type="int" name="NKREDLFX">     1</i>
   <i type="int" name="NKREDLFY">     1</i>
   <i type="int" name="NKREDLFZ">     1</i>
   <i type="int" name="MAXMEM">  2800</i>
   <i type="int" name="TELESCOPE">     0</i>
   <i type="int" name="NTAUPAR">    -1</i>
   <i type="int" name="NOMEGAPAR">    -1</i>
   <i name="DAMP_NEWTON">      0.80000001</i>
   <i name="LAMBDA">      1.00000000</i>
  </separator>
  <separator name="External order field" >
   <i name="OFIELD_KAPPA">      0.00000000</i>
   <v name="OFIELD_K">      0.00000000      0.00000000      0.00000000</v>
   <i name="OFIELD_Q6_NEAR">      0.00000000</i>
   <i name="OFIELD_Q6_FAR">      0.00000000</i>
   <i name="OFIELD_A">      0.00000000</i>
  </separator>
  <separator name="optional k-points parameters" >
   <i type="int" name="KPOINTS_OPT_MODE">     1</i>
   <i type="logical" name="LKPOINTS_OPT"> F  </i>
  </separator>
 </parameters>
 <atominfo>
  <atoms>       9 </atoms>
  <types>       2 </types>
  <array name="atoms" >
   <dimension dim="1">ion</dimension>
   <field type="string">element</field>
   <field type="int">atomtype</field>
   <set>
    <rc><c>Si</c><c>   1</c></rc>
    <rc><c>Si</c><c>   1</c></rc>
    <rc><c>Si</c><c>   1</c></rc>
    <rc><c>O </c><c>   2</c></rc>
    <rc><c>O </c><c>   2</c></rc>
    <rc><c>O </c><c>   2</c></rc>
    <rc><c>O </c><c>   2</c></rc>
    <rc><c>O </c><c>   2</c></rc>
    <rc><c>O </c><c>   2</c></rc>
   </set>
  </array>
  <array name="atomtypes" >
   <dimension dim="1">type</dimension>
   <field type="int">atomspertype</field>
   <field type="string">element</field>
   <field>mass</field>
   <field>valence</field>
   <field type="string">pseudopotential</field>
   <set>
    <rc><c>   3</c><c>Si</c><c>     28.08500000</c><c>      4.00000000</c><c>  PAW_PBE Si 05Jan2001                  </c></rc>
    <rc><c>   6</c><c>O </c><c>     16.00000000</c><c>      6.00000000</c><c>  PAW_PBE O 08Apr2002                   </c></rc>
   </set>
  </array>
 </atominfo>
 <structure name="initialpos" >
  <crystal>
   <varray name="basis" >
    <v>       4.87342988       0.00000000       0.00000000 </v>
    <v>      -2.43671494       4.22051408       0.00000000 </v>
    <v>       0.00000000       0.00000000       5.37418982 </v>
   </varray>
   <i name="volume">    110.53837516 </i>
   <varray name="rec_basis" >
    <v>       0.20519429       0.11846898      -0.00000000 </v>
    <v>       0.00000000       0.23693796       0.00000000 </v>
    <v>       0.00000000      -0.00000000       0.18607456 </v>
   </varray>
  </crystal>
  <varray name="positions" >
   <v>       0.46478891       0.00000000       0.66666667 </v>
   <v>       0.00000000       0.46478891       0.33333333 </v>
   <v>       0.53521109       0.53521109       0.00000000 </v>
   <v>       0.13560018       0.72415721       0.55409589 </v>
   <v>       0.27584279       0.41144297       0.22076255 </v>
   <v>       0.58855703       0.86439982       0.88742922 </v>
   <v>       0.41144297       0.27584279       0.77923745 </v>
   <v>       0.86439982       0.58855703       0.11257078 </v>
   <v>       0.72415721       0.13560018       0.44590411 </v>
  </varray>
 </structure>
 <calculation>
  <scstep>
   <time name="dav">    0.49    0.48</time>
   <time name="total">    0.52    0.50</time>
   <energy>
    <i name="alphaZ">     71.30271804 </i>
    <i name="ewald">  -1930.00840067 </i>
    <i name="hartreedc">   -909.50229375 </i>
    <i name="XCdc">    141.71267661 </i>
    <i name="pawpsdc">   2343.66826019 </i>
    <i name="pawaedc">  -2301.68043871 </i>
    <i name="eentropy">     -0.00332671 </i>
    <i name="bandstr">    -13.65424395 </i>
    <i name="atom">   2903.33737771 </i>
    <i name="e_fr_energy">    305.17232876 </i>
    <i name="e_wo_entrp">    305.17565547 </i>
    <i name="e_0_energy">    305.17399211 </i>
   </energy>
  </scstep>
  <scstep>
   <time name="dav">    0.44    0.45</time>
   <time name="total">    0.45    0.45</time>
   <energy>
    <i name="e_fr_energy">    -60.80887609 </i>
    <i name="e_wo_entrp">    -60.80887609 </i>
    <i name="e_0_energy">    -60.80887609 </i>
   </energy>
  </scstep>
  <scstep>
   <time name="dav">    0.42    0.42</time>
   <time name="total">    0.42    0.42</time>
   <energy>
    <i name="e_fr_energy">    -80.16787512 </i>
    <i name="e_wo_entrp">    -80.16787512 </i>
    <i name="e_0_energy">    -80.16787512 </i>
   </energy>
  </scstep>
  <scstep>
   <time name="dav">    0.42    0.42</time>
   <time name="total">    0.42    0.42</time>
   <energy>
    <i name="e_fr_energy">    -80.42055823 </i>
    <i name="e_wo_entrp">    -80.42055823 </i>
    <i name="e_0_energy">    -80.42055823 </i>
   </energy>
  </scstep>
  <scstep>
   <time name="dav">    0.41    0.41</time>
   <time name="total">    0.50    0.47</time>
   <energy>
    <i name="e_fr_energy">    -80.42555054 </i>
    <i name="e_wo_entrp">    -80.42555054 </i>
    <i name="e_0_energy">    -80.42555054 </i>
   </energy>
  </scstep>
  <scstep>
   <time name="diag">    0.05    0.04</time>
   <time name="diis">    0.46    0.47</time>
   <time name="orth">    0.00    0.00</time>
   <time name="total">    0.63    0.58</time>
   <energy>
    <i name="e_fr_energy">    -70.67343229 </i>
    <i name="e_wo_entrp">    -70.67343229 </i>
    <i name="e_0_energy">    -70.67343229 </i>
   </energy>
  </scstep>
  <scstep>
   <time name="diag">    0.05    0.04</time>
   <time name="diis">    0.51    0.52</time>
   <time name="orth">    0.00    0.00</time>
   <time name="total">    0.68    0.63</time>
   <energy>
    <i name="e_fr_energy">    -70.97597783 </i>
    <i name="e_wo_entrp">    -70.97597783 </i>
    <i name="e_0_energy">    -70.97597783 </i>
   </energy>
  </scstep>
  <scstep>
   <time name="diag">    0.05    0.04</time>
   <time name="diis">    0.52    0.52</time>
   <time name="orth">    0.00    0.00</time>
   <time name="total">    0.68    0.63</time>
   <energy>
    <i name="e_fr_energy">    -70.96775175 </i>
    <i name="e_wo_entrp">    -70.96775175 </i>
    <i name="e_0_energy">    -70.96775175 </i>
   </energy>
  </scstep>
  <scstep>
   <time name="diag">    0.05    0.04</time>
   <time name="diis">    0.52    0.53</time>
   <time name="orth">    0.00    0.00</time>
   <time name="total">    0.69    0.64</time>
   <energy>
    <i name="e_fr_energy">    -70.98683681 </i>
    <i name="e_wo_entrp">    -70.98683681 </i>
    <i name="e_0_energy">    -70.98683681 </i>
   </energy>
  </scstep>
  <scstep>
   <time name="diag">    0.05    0.04</time>
   <time name="diis">    0.52    0.53</time>
   <time name="orth">    0.00    0.00</time>
   <time name="total">    0.69    0.64</time>
   <energy>
    <i name="e_fr_energy">    -70.99215074 </i>
    <i name="e_wo_entrp">    -70.99215074 </i>
    <i name="e_0_energy">    -70.99215074 </i>
   </energy>
  </scstep>
  <scstep>
   <time name="diag">    0.05    0.04</time>
   <time name="diis">    0.52    0.53</time>
   <time name="orth">    0.00    0.00</time>
   <time name="total">    0.69    0.64</time>
   <energy>
    <i name="e_fr_energy">    -70.98826733 </i>
    <i name="e_wo_entrp">    -70.98826733 </i>
    <i name="e_0_energy">    -70.98826733 </i>
   </energy>
  </scstep>
  <scstep>
   <time name="diag">    0.05    0.04</time>
   <time name="diis">    0.53    0.53</time>
   <time name="orth">    0.00    0.00</time>
   <time name="total">    0.69    0.64</time>
   <energy>
    <i name="e_fr_energy">    -70.98886645 </i>
    <i name="e_wo_entrp">    -70.98886645 </i>
    <i name="e_0_energy">    -70.98886645 </i>
   </energy>
  </scstep>
  <scstep>
   <time name="diag">    0.05    0.04</time>
   <time name="diis">    0.56    0.56</time>
   <time name="orth">    0.00    0.00</time>
   <time name="total">    0.72    0.67</time>
   <energy>
    <i name="e_fr_energy">    -70.98862869 </i>
    <i name="e_wo_entrp">    -70.98862869 </i>
    <i name="e_0_energy">    -70.98862869 </i>
   </energy>
  </scstep>
  <scstep>
   <time name="diag">    0.05    0.04</time>
   <time name="diis">    0.53    0.54</time>
   <time name="orth">    0.00    0.00</time>
   <time name="total">    0.70    0.65</time>
   <energy>
    <i name="e_fr_energy">    -70.98859062 </i>
    <i name="e_wo_entrp">    -70.98859062 </i>
    <i name="e_0_energy">    -70.98859062 </i>
   </energy>
  </scstep>
  <scstep>
   <time name="diag">    0.05    0.04</time>
   <time name="diis">    0.57    0.57</time>
   <time name="orth">    0.00    0.00</time>
   <time name="total">    0.74    0.69</time>
   <energy>
    <i name="e_fr_energy">    -70.98858703 </i>
    <i name="e_wo_entrp">    -70.98858703 </i>
    <i name="e_0_energy">    -70.98858703 </i>
   </energy>
  </scstep>
  <scstep>
   <time name="diag">    0.05    0.04</time>
   <time name="diis">    0.53    0.53</time>
   <time name="orth">    0.00    0.00</time>
   <time name="total">    0.69    0.64</time>
   <energy>
    <i name="e_fr_energy">    -70.98858585 </i>
    <i name="e_wo_entrp">    -70.98858585 </i>
    <i name="e_0_energy">    -70.98858585 </i>
   </energy>
  </scstep>
  <scstep>
   <time name="diag">    0.05    0.04</time>
   <time name="diis">    0.53    0.53</time>
   <time name="orth">    0.00    0.00</time>
   <time name="total">    0.69    0.64</time>
   <energy>
    <i name="e_fr_energy">    -70.98858605 </i>
    <i name="e_wo_entrp">    -70.98858605 </i>
    <i name="e_0_energy">    -70.98858605 </i>
   </energy>
  </scstep>
  <scstep>
   <time name="diag">    0.05    0.04</time>
   <time name="diis">    0.57    0.58</time>
   <time name="orth">    0.00    0.00</time>
   <time name="total">    0.86    0.71</time>
   <energy>
    <i name="e_fr_energy">    -70.98858623 </i>
    <i name="e_wo_entrp">    -70.98858623 </i>
    <i name="e_0_energy">    -70.98858623 </i>
   </energy>
  </scstep>
  <scstep>
   <time name="diag">    0.05    0.04</time>
   <time name="diis">    0.53    0.53</time>
   <time name="orth">    0.00    0.00</time>
   <time name="total">    0.70    0.64</time>
   <energy>
    <i name="e_fr_energy">    -70.98858621 </i>
    <i name="e_wo_entrp">    -70.98858621 </i>
    <i name="e_0_energy">    -70.98858621 </i>
   </energy>
  </scstep>
  <scstep>
   <time name="diag">    0.05    0.04</time>
   <time name="diis">    0.53    0.53</time>
   <time name="orth">    0.00    0.00</time>
   <time name="total">    0.69    0.64</time>
   <energy>
    <i name="e_fr_energy">    -70.98858625 </i>
    <i name="e_wo_entrp">    -70.98858625 </i>
    <i name="e_0_energy">    -70.98858625 </i>
   </energy>
  </scstep>
  <scstep>
   <time name="diag">    0.05    0.04</time>
   <time name="diis">    0.36    0.36</time>
   <time name="orth">    0.00    0.00</time>
   <time name="total">    0.52    0.47</time>
   <energy>
    <i name="e_fr_energy">    -70.98858623 </i>
    <i name="e_wo_entrp">    -70.98858623 </i>
    <i name="e_0_energy">    -70.98858623 </i>
   </energy>
  </scstep>
  <scstep>
   <time name="diag">    0.05    0.04</time>
   <time name="diis">    0.35    0.35</time>
   <time name="orth">    0.00    0.00</time>
   <time name="total">    0.43    0.40</time>
   <energy>
    <i name="alphaZ">     71.30271804 </i>
    <i name="ewald">  -1930.00840067 </i>
    <i name="hartreedc">  -1040.70296322 </i>
    <i name="XCdc">    150.69075257 </i>
    <i name="pawpsdc">   8050.56146176 </i>
    <i name="pawaedc">  -8010.94049647 </i>
    <i name="eentropy">     -0.00000000 </i>
    <i name="bandstr">   -265.22903595 </i>
    <i name="atom">   2903.33737771 </i>
    <i name="e_fr_energy">    -70.98858622 </i>
    <i name="e_wo_entrp">    -70.98858622 </i>
    <i name="e_0_energy">    -70.98858622 </i>
   </energy>
  </scstep>
  <structure>
   <crystal>
    <varray name="basis" >
     <v>       4.87342988       0.00000000       0.00000000 </v>
     <v>      -2.43671494       4.22051408       0.00000000 </v>
     <v>       0.00000000       0.00000000       5.37418982 </v>
    </varray>
    <i name="volume">    110.53837516 </i>
    <varray name="rec_basis" >
     <v>       0.20519429       0.11846898      -0.00000000 </v>
     <v>       0.00000000       0.23693796       0.00000000 </v>
     <v>       0.00000000      -0.00000000       0.18607456 </v>
    </varray>
   </crystal>
   <varray name="positions" >
    <v>       0.46478891       0.00000000       0.66666667 </v>
    <v>       0.00000000       0.46478891       0.33333333 </v>
    <v>       0.53521109       0.53521109       0.00000000 </v>
    <v>       0.13560018       0.72415721       0.55409589 </v>
    <v>       0.27584279       0.41144297       0.22076255 </v>
    <v>       0.58855703       0.86439982       0.88742922 </v>
    <v>       0.41144297       0.27584279       0.77923745 </v>
    <v>       0.86439982       0.58855703       0.11257078 </v>
    <v>       0.72415721       0.13560018       0.44590411 </v>
   </varray>
  </structure>
  <varray name="forces" >
   <v>       0.01559716      -0.00000000      -0.00000000 </v>
   <v>      -0.00779858       0.01350754      -0.00000000 </v>
   <v>      -0.00779858      -0.01350754      -0.00000000 </v>
   <v>      -0.27557129      -0.00315401       0.15476428 </v>
   <v>       0.14051710      -0.23707473       0.15476428 </v>
   <v>       0.13505419       0.24022874       0.15476428 </v>
   <v>      -0.27557129       0.00315401      -0.15476428 </v>
   <v>       0.14051710       0.23707473      -0.15476428 </v>
   <v>       0.13505419      -0.24022874      -0.15476428 </v>
  </varray>
  <varray name="stress" >
   <v>      72.44728840       0.00000000       0.00000000 </v>
   <v>       0.00000000      72.44728840      -0.00000000 </v>
   <v>       0.00000000       0.00000000      74.11082916 </v>
  </varray>
  <energy>
   <i name="e_fr_energy">    -70.98858622 </i>
   <i name="e_wo_entrp">    -70.98858622 </i>
   <i name="e_0_energy">    -70.98858622 </i>
  </energy>
  <scstep>
   <time name="total">    6.58    1.40</time>
   <energy>
    <i name="e_fr_energy">   -182.68585792 </i>
    <i name="e_wo_entrp">   -182.68585792 </i>
    <i name="e_0_energy">   -182.68585792 </i>
   </energy>
  </scstep>
  <scstep>
   <time name="total">    6.40    1.23</time>
   <energy>
    <i name="e_fr_energy">   -172.55257351 </i>
    <i name="e_wo_entrp">   -172.55257351 </i>
    <i name="e_0_energy">   -172.55257351 </i>
   </energy>
  </scstep>
  <scstep>
   <time name="total">    6.40    1.26</time>
   <energy>
    <i name="e_fr_energy">   -172.69887738 </i>
    <i name="e_wo_entrp">   -172.69887738 </i>
    <i name="e_0_energy">   -172.69887738 </i>
   </energy>
  </scstep>
  <scstep>
   <time name="total">    0.50    0.50</time>
   <energy>
    <i name="e_fr_energy">   -172.70626519 </i>
    <i name="e_wo_entrp">   -172.70626519 </i>
    <i name="e_0_energy">   -172.70626519 </i>
   </energy>
  </scstep>
  <scstep>
   <time name="total">    0.50    0.50</time>
   <energy>
    <i name="e_fr_energy">   -172.70643745 </i>
    <i name="e_wo_entrp">   -172.70643745 </i>
    <i name="e_0_energy">   -172.70643745 </i>
   </energy>
  </scstep>
  <scstep>
   <time name="total">    0.50    0.50</time>
   <energy>
    <i name="e_fr_energy">   -172.70644806 </i>
    <i name="e_wo_entrp">   -172.70644806 </i>
    <i name="e_0_energy">   -172.70644806 </i>
   </energy>
  </scstep>
  <scstep>
   <time name="total">    0.51    0.51</time>
   <energy>
    <i name="e_fr_energy">   -172.70644742 </i>
    <i name="e_wo_entrp">   -172.70644742 </i>
    <i name="e_0_energy">   -172.70644742 </i>
   </energy>
  </scstep>
  <scstep>
   <time name="total">    0.51    0.51</time>
   <energy>
    <i name="e_fr_energy">   -172.70644488 </i>
    <i name="e_wo_entrp">   -172.70644488 </i>
    <i name="e_0_energy">   -172.70644488 </i>
   </energy>
  </scstep>
  <scstep>
   <time name="total">    0.50    0.50</time>
   <energy>
    <i name="e_fr_energy">   -172.70644416 </i>
    <i name="e_wo_entrp">   -172.70644416 </i>
    <i name="e_0_energy">   -172.70644416 </i>
   </energy>
  </scstep>
  <scstep>
   <time name="total">    0.50    0.51</time>
   <energy>
    <i name="e_fr_energy">   -172.70644419 </i>
    <i name="e_wo_entrp">   -172.70644419 </i>
    <i name="e_0_energy">   -172.70644419 </i>
   </energy>
  </scstep>
  <scstep>
   <time name="total">    6.54    1.40</time>
   <energy>
    <i name="e_fr_energy">   -182.13598997 </i>
    <i name="e_wo_entrp">   -182.13598997 </i>
    <i name="e_0_energy">   -182.13598997 </i>
   </energy>
  </scstep>
  <scstep>
   <time name="total">    6.39    1.22</time>
   <energy>
    <i name="e_fr_energy">   -172.66842656 </i>
    <i name="e_wo_entrp">   -172.66842656 </i>
    <i name="e_0_energy">   -172.66842656 </i>
   </energy>
  </scstep>
  <scstep>
   <time name="total">    6.41    1.24</time>
   <energy>
    <i name="e_fr_energy">   -172.81131570 </i>
    <i name="e_wo_entrp">   -172.81131570 </i>
    <i name="e_0_energy">   -172.81131570 </i>
   </energy>
  </scstep>
  <scstep>
   <time name="total">    0.50    0.50</time>
   <energy>
    <i name="e_fr_energy">   -172.81861347 </i>
    <i name="e_wo_entrp">   -172.81861347 </i>
    <i name="e_0_energy">   -172.81861347 </i>
   </energy>
  </scstep>
  <scstep>
   <time name="total">    0.50    0.50</time>
   <energy>
    <i name="e_fr_energy">   -172.81879948 </i>
    <i name="e_wo_entrp">   -172.81879948 </i>
    <i name="e_0_energy">   -172.81879948 </i>
   </energy>
  </scstep>
  <scstep>
   <time name="total">    0.50    0.51</time>
   <energy>
    <i name="e_fr_energy">   -172.81881564 </i>
    <i name="e_wo_entrp">   -172.81881564 </i>
    <i name="e_0_energy">   -172.81881564 </i>
   </energy>
  </scstep>
  <scstep>
   <time name="total">    0.51    0.51</time>
   <energy>
    <i name="e_fr_energy">   -172.81881731 </i>
    <i name="e_wo_entrp">   -172.81881731 </i>
    <i name="e_0_energy">   -172.81881731 </i>
   </energy>
  </scstep>
  <scstep>
   <time name="total">    0.51    0.51</time>
   <energy>
    <i name="e_fr_energy">   -172.81881840 </i>
    <i name="e_wo_entrp">   -172.81881840 </i>
    <i name="e_0_energy">   -172.81881840 </i>
   </energy>
  </scstep>
  <scstep>
   <time name="total">    0.50    0.50</time>
   <energy>
    <i name="e_fr_energy">   -172.81881748 </i>
    <i name="e_wo_entrp">   -172.81881748 </i>
    <i name="e_0_energy">   -172.81881748 </i>
   </energy>
  </scstep>
  <scstep>
   <time name="total">    0.50    0.50</time>
   <energy>
    <i name="e_fr_energy">   -172.81881710 </i>
    <i name="e_wo_entrp">   -172.81881710 </i>
    <i name="e_0_energy">   -172.81881710 </i>
   </energy>
  </scstep>
  <scstep>
   <time name="total">    6.63    1.42</time>
   <energy>
    <i name="e_fr_energy">   -182.23438538 </i>
    <i name="e_wo_entrp">   -182.23438538 </i>
    <i name="e_0_energy">   -182.23438538 </i>
   </energy>
  </scstep>
  <scstep>
   <time name="total">    6.67    1.26</time>
   <energy>
    <i name="e_fr_energy">   -172.55657919 </i>
    <i name="e_wo_entrp">   -172.55657919 </i>
    <i name="e_0_energy">   -172.55657919 </i>
   </energy>
  </scstep>
  <scstep>
   <time name="total">    6.48    1.25</time>
   <energy>
    <i name="e_fr_energy">   -172.70914109 </i>
    <i name="e_wo_entrp">   -172.70914109 </i>
    <i name="e_0_energy">   -172.70914109 </i>
   </energy>
  </scstep>
  <scstep>
   <time name="total">    0.50    0.50</time>
   <energy>
    <i name="e_fr_energy">   -172.71648895 </i>
    <i name="e_wo_entrp">   -172.71648895 </i>
    <i name="e_0_energy">   -172.71648895 </i>
   </energy>
  </scstep>
  <scstep>
   <time name="total">    0.50    0.50</time>
   <energy>
    <i name="e_fr_energy">   -172.71664894 </i>
    <i name="e_wo_entrp">   -172.71664894 </i>
    <i name="e_0_energy">   -172.71664894 </i>
   </energy>
  </scstep>
  <scstep>
   <time name="total">    0.50    0.50</time>
   <energy>
    <i name="e_fr_energy">   -172.71665299 </i>
    <i name="e_wo_entrp">   -172.71665299 </i>
    <i name="e_0_energy">   -172.71665299 </i>
   </energy>
  </scstep>
  <scstep>
   <time name="total">    0.51    0.51</time>
   <energy>
    <i name="e_fr_energy">   -172.71665399 </i>
    <i name="e_wo_entrp">   -172.71665399 </i>
    <i name="e_0_energy">   -172.71665399 </i>
   </energy>
  </scstep>
  <scstep>
   <time name="total">    0.50    0.50</time>
   <energy>
    <i name="e_fr_energy">   -172.71665279 </i>
    <i name="e_wo_entrp">   -172.71665279 </i>
    <i name="e_0_energy">   -172.71665279 </i>
   </energy>
  </scstep>
  <scstep>
   <time name="total">    0.50    0.50</time>
   <energy>
    <i name="e_fr_energy">   -172.71664507 </i>
    <i name="e_wo_entrp">   -172.71664507 </i>
    <i name="e_0_energy">   -172.71664507 </i>
   </energy>
  </scstep>
  <scstep>
   <time name="total">    0.50    0.50</time>
   <energy>
    <i name="e_fr_energy">   -172.71664574 </i>
    <i name="e_wo_entrp">   -172.71664574 </i>
    <i name="e_0_energy">   -172.71664574 </i>
   </energy>
  </scstep>
  <scstep>
   <time name="total">    1.19    0.72</time>
   <energy>
    <i name="e_fr_energy">     -0.48206817 </i>
    <i name="e_wo_entrp">     -0.48206817 </i>
    <i name="e_0_energy">     -0.48206817 </i>
   </energy>
  </scstep>
  <scstep>
   <time name="total">    1.18    0.72</time>
   <energy>
    <i name="e_fr_energy">     -0.48447949 </i>
    <i name="e_wo_entrp">     -0.48447949 </i>
    <i name="e_0_energy">     -0.48447949 </i>
   </energy>
  </scstep>
  <scstep>
   <time name="total">    1.18    0.72</time>
   <energy>
    <i name="e_fr_energy">     -0.48466196 </i>
    <i name="e_wo_entrp">     -0.48466196 </i>
    <i name="e_0_energy">     -0.48466196 </i>
   </energy>
  </scstep>
  <scstep>
   <time name="total">    1.18    0.72</time>
   <energy>
    <i name="e_fr_energy">     -0.48467058 </i>
    <i name="e_wo_entrp">     -0.48467058 </i>
    <i name="e_0_energy">     -0.48467058 </i>
   </energy>
  </scstep>
  <scstep>
   <time name="total">    1.18    0.72</time>
   <energy>
    <i name="e_fr_energy">     -0.48467088 </i>
    <i name="e_wo_entrp">     -0.48467088 </i>
    <i name="e_0_energy">     -0.48467088 </i>
   </energy>
  </scstep>
  <scstep>
   <time name="total">    1.17    0.71</time>
   <energy>
    <i name="e_fr_energy">     -0.48467090 </i>
    <i name="e_wo_entrp">     -0.48467090 </i>
    <i name="e_0_energy">     -0.48467090 </i>
   </energy>
  </scstep>
  <scstep>
   <time name="total">    1.15    0.67</time>
   <energy>
    <i name="e_fr_energy">     -0.48467090 </i>
    <i name="e_wo_entrp">     -0.48467090 </i>
    <i name="e_0_energy">     -0.48467090 </i>
   </energy>
  </scstep>
  <scstep>
   <time name="total">    1.13    0.66</time>
   <energy>
    <i name="e_fr_energy">     -0.48467090 </i>
    <i name="e_wo_entrp">     -0.48467090 </i>
    <i name="e_0_energy">     -0.48467090 </i>
   </energy>
  </scstep>
  <scstep>
   <time name="total">    1.11    0.64</time>
   <energy>
    <i name="e_fr_energy">     -0.48467090 </i>
    <i name="e_wo_entrp">     -0.48467090 </i>
    <i name="e_0_energy">     -0.48467090 </i>
   </energy>
  </scstep>
  <scstep>
   <time name="total">    1.19    0.73</time>
   <energy>
    <i name="e_fr_energy">     -0.48379727 </i>
    <i name="e_wo_entrp">     -0.48379727 </i>
    <i name="e_0_energy">     -0.48379727 </i>
   </energy>
  </scstep>
  <scstep>
   <time name="total">    1.20    0.73</time>
   <energy>
    <i name="e_fr_energy">     -0.48598744 </i>
    <i name="e_wo_entrp">     -0.48598744 </i>
    <i name="e_0_energy">     -0.48598744 </i>
   </energy>
  </scstep>
  <scstep>
   <time name="total">    1.19    0.73</time>
   <energy>
    <i name="e_fr_energy">     -0.48617992 </i>
    <i name="e_wo_entrp">     -0.48617992 </i>
    <i name="e_0_energy">     -0.48617992 </i>
   </energy>
  </scstep>
  <scstep>
   <time name="total">    1.21    0.73</time>
   <energy>
    <i name="e_fr_energy">     -0.48618868 </i>
    <i name="e_wo_entrp">     -0.48618868 </i>
    <i name="e_0_energy">     -0.48618868 </i>
   </energy>
  </scstep>
  <scstep>
   <time name="total">    1.21    0.73</time>
   <energy>
    <i name="e_fr_energy">     -0.48618900 </i>
    <i name="e_wo_entrp">     -0.48618900 </i>
    <i name="e_0_energy">     -0.48618900 </i>
   </energy>
  </scstep>
  <scstep>
   <time name="total">    1.16    0.69</time>
   <energy>
    <i name="e_fr_energy">     -0.48618902 </i>
    <i name="e_wo_entrp">     -0.48618902 </i>
    <i name="e_0_energy">     -0.48618902 </i>
   </energy>
  </scstep>
  <scstep>
   <time name="total">    1.12    0.66</time>
   <energy>
    <i name="e_fr_energy">     -0.48618902 </i>
    <i name="e_wo_entrp">     -0.48618902 </i>
    <i name="e_0_energy">     -0.48618902 </i>
   </energy>
  </scstep>
  <scstep>
   <time name="total">    1.12    0.65</time>
   <energy>
    <i name="e_fr_energy">     -0.48618902 </i>
    <i name="e_wo_entrp">     -0.48618902 </i>
    <i name="e_0_energy">     -0.48618902 </i>
   </energy>
  </scstep>
  <scstep>
   <time name="total">    1.11    0.64</time>
   <energy>
    <i name="e_fr_energy">     -0.48618902 </i>
    <i name="e_wo_entrp">     -0.48618902 </i>
    <i name="e_0_energy">     -0.48618902 </i>
   </energy>
  </scstep>
  <scstep>
   <time name="total">    1.20    0.72</time>
   <energy>
    <i name="e_fr_energy">     -0.48747364 </i>
    <i name="e_wo_entrp">     -0.48747364 </i>
    <i name="e_0_energy">     -0.48747364 </i>
   </energy>
  </scstep>
  <scstep>
   <time name="total">    1.19    0.71</time>
   <energy>
    <i name="e_fr_energy">     -0.48950982 </i>
    <i name="e_wo_entrp">     -0.48950982 </i>
    <i name="e_0_energy">     -0.48950982 </i>
   </energy>
  </scstep>
  <scstep>
   <time name="total">    1.18    0.71</time>
   <energy>
    <i name="e_fr_energy">     -0.48970071 </i>
    <i name="e_wo_entrp">     -0.48970071 </i>
    <i name="e_0_energy">     -0.48970071 </i>
   </energy>
  </scstep>
  <scstep>
   <time name="total">    1.18    0.72</time>
   <energy>
    <i name="e_fr_energy">     -0.48970962 </i>
    <i name="e_wo_entrp">     -0.48970962 </i>
    <i name="e_0_energy">     -0.48970962 </i>
   </energy>
  </scstep>
  <scstep>
   <time name="total">    1.18    0.72</time>
   <energy>
    <i name="e_fr_energy">     -0.48970993 </i>
    <i name="e_wo_entrp">     -0.48970993 </i>
    <i name="e_0_energy">     -0.48970993 </i>
   </energy>
  </scstep>
  <scstep>
   <time name="total">    1.15    0.69</time>
   <energy>
    <i name="e_fr_energy">     -0.48970995 </i>
    <i name="e_wo_entrp">     -0.48970995 </i>
    <i name="e_0_energy">     -0.48970995 </i>
   </energy>
  </scstep>
  <scstep>
   <time name="total">    1.12    0.65</time>
   <energy>
    <i name="e_fr_energy">     -0.48970995 </i>
    <i name="e_wo_entrp">     -0.48970995 </i>
    <i name="e_0_energy">     -0.48970995 </i>
   </energy>
  </scstep>
  <scstep>
   <time name="total">    1.11    0.64</time>
   <energy>
    <i name="e_fr_energy">     -0.48970995 </i>
    <i name="e_wo_entrp">     -0.48970995 </i>
    <i name="e_0_energy">     -0.48970995 </i>
   </energy>
  </scstep>
  <scstep>
   <time name="total">    1.11    0.64</time>
   <energy>
    <i name="e_fr_energy">     -0.48970995 </i>
    <i name="e_wo_entrp">     -0.48970995 </i>
    <i name="e_0_energy">     -0.48970995 </i>
   </energy>
  </scstep>
  <scstep>
   <time name="total">    1.10    0.63</time>
   <energy>
    <i name="e_fr_energy">     -0.48970995 </i>
    <i name="e_wo_entrp">     -0.48970995 </i>
    <i name="e_0_energy">     -0.48970995 </i>
   </energy>
  </scstep>
  <varray name="dielectric_ipa" >
   <v>       2.58931042       0.00000000       0.00000000 </v>
   <v>       0.00000000       2.58931042       0.00000000 </v>
   <v>       0.00000000       0.00000000       2.60332342 </v>
  </varray>
  <kpoints>
   <generation param="Gamma">
    <v type="int" name="divisions">       4        4        4 </v>
    <v name="usershift">      0.00000000       0.00000000       0.00000000 </v>
    <v name="genvec1">      0.25000000       0.00000000       0.00000000 </v>
    <v name="genvec2">      0.00000000       0.25000000       0.00000000 </v>
    <v name="genvec3">      0.00000000       0.00000000       0.25000000 </v>
    <v name="shift">      0.00000000       0.00000000       0.00000000 </v>
   </generation>
   <varray name="kpointlist" >
    <v>       0.00000000       0.00000000       0.00000000 </v>
    <v>       0.25000000       0.00000000       0.00000000 </v>
    <v>       0.00000000       0.25000000       0.00000000 </v>
    <v>       0.50000000       0.00000000       0.00000000 </v>
    <v>       0.00000000       0.50000000       0.00000000 </v>
    <v>       0.25000000       0.25000000       0.00000000 </v>
    <v>       0.50000000       0.25000000       0.00000000 </v>
    <v>       0.00000000       0.00000000       0.25000000 </v>
    <v>       0.25000000       0.00000000       0.25000000 </v>
    <v>       0.00000000       0.25000000       0.25000000 </v>
    <v>      -0.25000000       0.00000000       0.25000000 </v>
    <v>       0.00000000      -0.25000000       0.25000000 </v>
    <v>       0.50000000       0.00000000       0.25000000 </v>
    <v>       0.00000000       0.50000000       0.25000000 </v>
    <v>       0.25000000       0.25000000       0.25000000 </v>
    <v>       0.50000000       0.25000000       0.25000000 </v>
    <v>      -0.25000000      -0.25000000       0.25000000 </v>
    <v>       0.00000000       0.00000000       0.50000000 </v>
    <v>       0.25000000       0.00000000       0.50000000 </v>
    <v>       0.00000000       0.25000000       0.50000000 </v>
    <v>       0.50000000       0.00000000       0.50000000 </v>
    <v>       0.00000000       0.50000000       0.50000000 </v>
    <v>       0.25000000       0.25000000       0.50000000 </v>
    <v>       0.50000000       0.25000000       0.50000000 </v>
   </varray>
   <varray name="weights" >
    <v>       0.01562500 </v>
    <v>       0.06250000 </v>
    <v>       0.03125000 </v>
    <v>       0.03125000 </v>
    <v>       0.01562500 </v>
    <v>       0.06250000 </v>
    <v>       0.03125000 </v>
    <v>       0.03125000 </v>
    <v>       0.06250000 </v>
    <v>       0.03125000 </v>
    <v>       0.06250000 </v>
    <v>       0.03125000 </v>
    <v>       0.06250000 </v>
    <v>       0.03125000 </v>
    <v>       0.06250000 </v>
    <v>       0.06250000 </v>
    <v>       0.06250000 </v>
    <v>       0.01562500 </v>
    <v>       0.06250000 </v>
    <v>       0.03125000 </v>
    <v>       0.03125000 </v>
    <v>       0.01562500 </v>
    <v>       0.06250000 </v>
    <v>       0.03125000 </v>
   </varray>
  </kpoints>
  <scstep>
   <time name="total">    1.70    1.24</time>
   <energy>
    <i name="e_fr_energy">     -0.48299715 </i>
    <i name="e_wo_entrp">     -0.48299715 </i>
    <i name="e_0_energy">     -0.48299715 </i>
   </energy>
  </scstep>
  <scstep>
   <time name="total">    1.80    1.28</time>
   <energy>
    <i name="e_fr_energy">     -0.48523403 </i>
    <i name="e_wo_entrp">     -0.48523403 </i>
    <i name="e_0_energy">     -0.48523403 </i>
   </energy>
  </scstep>
  <scstep>
   <time name="total">    1.77    1.29</time>
   <energy>
    <i name="e_fr_energy">     -0.46477959 </i>
    <i name="e_wo_entrp">     -0.46477959 </i>
    <i name="e_0_energy">     -0.46477959 </i>
   </energy>
  </scstep>
  <scstep>
   <time name="total">    1.78    1.29</time>
   <energy>
    <i name="e_fr_energy">     -0.47584210 </i>
    <i name="e_wo_entrp">     -0.47584210 </i>
    <i name="e_0_energy">     -0.47584210 </i>
   </energy>
  </scstep>
  <scstep>
   <time name="total">    1.81    1.29</time>
   <energy>
    <i name="e_fr_energy">     -0.49359069 </i>
    <i name="e_wo_entrp">     -0.49359069 </i>
    <i name="e_0_energy">     -0.49359069 </i>
   </energy>
  </scstep>
  <scstep>
   <time name="total">    1.75    1.27</time>
   <energy>
    <i name="e_fr_energy">     -0.49649816 </i>
    <i name="e_wo_entrp">     -0.49649816 </i>
    <i name="e_0_energy">     -0.49649816 </i>
   </energy>
  </scstep>
  <scstep>
   <time name="total">    1.77    1.29</time>
   <energy>
    <i name="e_fr_energy">     -0.49674868 </i>
    <i name="e_wo_entrp">     -0.49674868 </i>
    <i name="e_0_energy">     -0.49674868 </i>
   </energy>
  </scstep>
  <scstep>
   <time name="total">    1.78    1.29</time>
   <energy>
    <i name="e_fr_energy">     -0.49698042 </i>
    <i name="e_wo_entrp">     -0.49698042 </i>
    <i name="e_0_energy">     -0.49698042 </i>
   </energy>
  </scstep>
  <scstep>
   <time name="total">    1.78    1.29</time>
   <energy>
    <i name="e_fr_energy">     -0.49704031 </i>
    <i name="e_wo_entrp">     -0.49704031 </i>
    <i name="e_0_energy">     -0.49704031 </i>
   </energy>
  </scstep>
  <scstep>
   <time name="total">    1.78    1.29</time>
   <energy>
    <i name="e_fr_energy">     -0.49703683 </i>
    <i name="e_wo_entrp">     -0.49703683 </i>
    <i name="e_0_energy">     -0.49703683 </i>
   </energy>
  </scstep>
  <scstep>
   <time name="total">    1.80    1.31</time>
   <energy>
    <i name="e_fr_energy">     -0.49703760 </i>
    <i name="e_wo_entrp">     -0.49703760 </i>
    <i name="e_0_energy">     -0.49703760 </i>
   </energy>
  </scstep>
  <scstep>
   <time name="total">    1.80    1.26</time>
   <energy>
    <i name="e_fr_energy">     -0.49703768 </i>
    <i name="e_wo_entrp">     -0.49703768 </i>
    <i name="e_0_energy">     -0.49703768 </i>
   </energy>
  </scstep>
  <scstep>
   <time name="total">    1.72    1.24</time>
   <energy>
    <i name="e_fr_energy">     -0.49703754 </i>
    <i name="e_wo_entrp">     -0.49703754 </i>
    <i name="e_0_energy">     -0.49703754 </i>
   </energy>
  </scstep>
  <scstep>
   <time name="total">    1.73    1.25</time>
   <energy>
    <i name="e_fr_energy">     -0.49703745 </i>
    <i name="e_wo_entrp">     -0.49703745 </i>
    <i name="e_0_energy">     -0.49703745 </i>
   </energy>
  </scstep>
  <kpoints>
   <generation param="Gamma">
    <v type="int" name="divisions">       4        4        4 </v>
    <v name="usershift">      0.00000000       0.00000000       0.00000000 </v>
    <v name="genvec1">      0.25000000       0.00000000       0.00000000 </v>
    <v name="genvec2">      0.00000000       0.25000000       0.00000000 </v>
    <v name="genvec3">      0.00000000       0.00000000       0.25000000 </v>
    <v name="shift">      0.00000000       0.00000000       0.00000000 </v>
   </generation>
   <varray name="kpointlist" >
    <v>       0.00000000       0.00000000       0.00000000 </v>
    <v>       0.25000000       0.00000000       0.00000000 </v>
    <v>       0.00000000       0.25000000       0.00000000 </v>
    <v>      -0.25000000       0.25000000       0.00000000 </v>
    <v>       0.50000000       0.00000000       0.00000000 </v>
    <v>       0.00000000       0.50000000       0.00000000 </v>
    <v>       0.50000000       0.50000000       0.00000000 </v>
    <v>       0.25000000       0.25000000       0.00000000 </v>
    <v>      -0.25000000       0.50000000       0.00000000 </v>
    <v>       0.50000000       0.25000000       0.00000000 </v>
    <v>       0.00000000       0.00000000       0.25000000 </v>
    <v>       0.25000000       0.00000000       0.25000000 </v>
    <v>       0.00000000       0.25000000       0.25000000 </v>
    <v>      -0.25000000       0.25000000       0.25000000 </v>
    <v>      -0.25000000       0.00000000       0.25000000 </v>
    <v>       0.00000000      -0.25000000       0.25000000 </v>
    <v>       0.25000000      -0.25000000       0.25000000 </v>
    <v>       0.50000000       0.00000000       0.25000000 </v>
    <v>       0.00000000       0.50000000       0.25000000 </v>
    <v>       0.50000000       0.50000000       0.25000000 </v>
    <v>       0.25000000       0.25000000       0.25000000 </v>
    <v>      -0.25000000       0.50000000       0.25000000 </v>
    <v>       0.50000000       0.25000000       0.25000000 </v>
    <v>      -0.25000000      -0.25000000       0.25000000 </v>
    <v>       0.25000000       0.50000000       0.25000000 </v>
    <v>       0.50000000      -0.25000000       0.25000000 </v>
    <v>       0.00000000       0.00000000       0.50000000 </v>
    <v>       0.25000000       0.00000000       0.50000000 </v>
    <v>       0.00000000       0.25000000       0.50000000 </v>
    <v>      -0.25000000       0.25000000       0.50000000 </v>
    <v>       0.50000000       0.00000000       0.50000000 </v>
    <v>       0.00000000       0.50000000       0.50000000 </v>
    <v>       0.50000000       0.50000000       0.50000000 </v>
    <v>       0.25000000       0.25000000       0.50000000 </v>
    <v>      -0.25000000       0.50000000       0.50000000 </v>
    <v>       0.50000000       0.25000000       0.50000000 </v>
   </varray>
   <varray name="weights" >
    <v>       0.01562500 </v>
    <v>       0.03125000 </v>
    <v>       0.03125000 </v>
    <v>       0.03125000 </v>
    <v>       0.01562500 </v>
    <v>       0.01562500 </v>
    <v>       0.01562500 </v>
    <v>       0.03125000 </v>
    <v>       0.03125000 </v>
    <v>       0.03125000 </v>
    <v>       0.03125000 </v>
    <v>       0.03125000 </v>
    <v>       0.03125000 </v>
    <v>       0.03125000 </v>
    <v>       0.03125000 </v>
    <v>       0.03125000 </v>
    <v>       0.03125000 </v>
    <v>       0.03125000 </v>
    <v>       0.03125000 </v>
    <v>       0.03125000 </v>
    <v>       0.03125000 </v>
    <v>       0.03125000 </v>
    <v>       0.03125000 </v>
    <v>       0.03125000 </v>
    <v>       0.03125000 </v>
    <v>       0.03125000 </v>
    <v>       0.01562500 </v>
    <v>       0.03125000 </v>
    <v>       0.03125000 </v>
    <v>       0.03125000 </v>
    <v>       0.01562500 </v>
    <v>       0.01562500 </v>
    <v>       0.01562500 </v>
    <v>       0.03125000 </v>
    <v>       0.03125000 </v>
    <v>       0.03125000 </v>
   </varray>
  </kpoints>
  <scstep>
   <time name="total">    2.24    1.78</time>
   <energy>
    <i name="e_fr_energy">     -0.48303939 </i>
    <i name="e_wo_entrp">     -0.48303939 </i>
    <i name="e_0_energy">     -0.48303939 </i>
   </energy>
  </scstep>
  <scstep>
   <time name="total">    2.32    1.85</time>
   <energy>
    <i name="e_fr_energy">     -0.48523227 </i>
    <i name="e_wo_entrp">     -0.48523227 </i>
    <i name="e_0_energy">     -0.48523227 </i>
   </energy>
  </scstep>
  <scstep>
   <time name="total">    2.34    1.87</time>
   <energy>
    <i name="e_fr_energy">     -0.46501612 </i>
    <i name="e_wo_entrp">     -0.46501612 </i>
    <i name="e_0_energy">     -0.46501612 </i>
   </energy>
  </scstep>
  <scstep>
   <time name="total">    2.35    1.87</time>
   <energy>
    <i name="e_fr_energy">     -0.47586481 </i>
    <i name="e_wo_entrp">     -0.47586481 </i>
    <i name="e_0_energy">     -0.47586481 </i>
   </energy>
  </scstep>
  <scstep>
   <time name="total">    2.34    1.86</time>
   <energy>
    <i name="e_fr_energy">     -0.49359668 </i>
    <i name="e_wo_entrp">     -0.49359668 </i>
    <i name="e_0_energy">     -0.49359668 </i>
   </energy>
  </scstep>
  <scstep>
   <time name="total">    2.33    1.84</time>
   <energy>
    <i name="e_fr_energy">     -0.49651223 </i>
    <i name="e_wo_entrp">     -0.49651223 </i>
    <i name="e_0_energy">     -0.49651223 </i>
   </energy>
  </scstep>
  <scstep>
   <time name="total">    2.36    1.88</time>
   <energy>
    <i name="e_fr_energy">     -0.49675618 </i>
    <i name="e_wo_entrp">     -0.49675618 </i>
    <i name="e_0_energy">     -0.49675618 </i>
   </energy>
  </scstep>
  <scstep>
   <time name="total">    2.47    1.90</time>
   <energy>
    <i name="e_fr_energy">     -0.49698662 </i>
    <i name="e_wo_entrp">     -0.49698662 </i>
    <i name="e_0_energy">     -0.49698662 </i>
   </energy>
  </scstep>
  <scstep>
   <time name="total">    2.36    1.88</time>
   <energy>
    <i name="e_fr_energy">     -0.49705177 </i>
    <i name="e_wo_entrp">     -0.49705177 </i>
    <i name="e_0_energy">     -0.49705177 </i>
   </energy>
  </scstep>
  <scstep>
   <time name="total">    2.36    1.88</time>
   <energy>
    <i name="e_fr_energy">     -0.49704663 </i>
    <i name="e_wo_entrp">     -0.49704663 </i>
    <i name="e_0_energy">     -0.49704663 </i>
   </energy>
  </scstep>
  <scstep>
   <time name="total">    2.36    1.88</time>
   <energy>
    <i name="e_fr_energy">     -0.49704773 </i>
    <i name="e_wo_entrp">     -0.49704773 </i>
    <i name="e_0_energy">     -0.49704773 </i>
   </energy>
  </scstep>
  <scstep>
   <time name="total">    2.29    1.81</time>
   <energy>
    <i name="e_fr_energy">     -0.49704777 </i>
    <i name="e_wo_entrp">     -0.49704777 </i>
    <i name="e_0_energy">     -0.49704777 </i>
   </energy>
  </scstep>
  <scstep>
   <time name="total">    2.65    1.87</time>
   <energy>
    <i name="e_fr_energy">     -0.49704779 </i>
    <i name="e_wo_entrp">     -0.49704779 </i>
    <i name="e_0_energy">     -0.49704779 </i>
   </energy>
  </scstep>
  <scstep>
   <time name="total">    2.32    1.83</time>
   <energy>
    <i name="e_fr_energy">     -0.49704772 </i>
    <i name="e_wo_entrp">     -0.49704772 </i>
    <i name="e_0_energy">     -0.49704772 </i>
   </energy>
  </scstep>
  <kpoints>
   <generation param="Gamma">
    <v type="int" name="divisions">       4        4        4 </v>
    <v name="usershift">      0.00000000       0.00000000       0.00000000 </v>
    <v name="genvec1">      0.25000000       0.00000000       0.00000000 </v>
    <v name="genvec2">      0.00000000       0.25000000       0.00000000 </v>
    <v name="genvec3">      0.00000000       0.00000000       0.25000000 </v>
    <v name="shift">      0.00000000       0.00000000       0.00000000 </v>
   </generation>
   <varray name="kpointlist" >
    <v>       0.00000000       0.00000000       0.00000000 </v>
    <v>       0.25000000       0.00000000       0.00000000 </v>
    <v>       0.50000000       0.00000000       0.00000000 </v>
    <v>       0.25000000       0.25000000       0.00000000 </v>
    <v>       0.00000000       0.00000000       0.25000000 </v>
    <v>       0.25000000       0.00000000       0.25000000 </v>
    <v>       0.00000000       0.25000000       0.25000000 </v>
    <v>       0.50000000       0.00000000       0.25000000 </v>
    <v>       0.25000000       0.25000000       0.25000000 </v>
    <v>      -0.25000000       0.50000000       0.25000000 </v>
    <v>       0.00000000       0.00000000       0.50000000 </v>
    <v>       0.25000000       0.00000000       0.50000000 </v>
    <v>       0.50000000       0.00000000       0.50000000 </v>
    <v>       0.25000000       0.25000000       0.50000000 </v>
   </varray>
   <varray name="weights" >
    <v>       0.01562500 </v>
    <v>       0.09375000 </v>
    <v>       0.04687500 </v>
    <v>       0.09375000 </v>
    <v>       0.03125000 </v>
    <v>       0.09375000 </v>
    <v>       0.09375000 </v>
    <v>       0.09375000 </v>
    <v>       0.09375000 </v>
    <v>       0.09375000 </v>
    <v>       0.01562500 </v>
    <v>       0.09375000 </v>
    <v>       0.04687500 </v>
    <v>       0.09375000 </v>
   </varray>
  </kpoints>
  <scstep>
   <time name="total">    1.24    0.77</time>
   <energy>
    <i name="e_fr_energy">     -0.48747365 </i>
    <i name="e_wo_entrp">     -0.48747365 </i>
    <i name="e_0_energy">     -0.48747365 </i>
   </energy>
  </scstep>
  <scstep>
   <time name="total">    1.28    0.79</time>
   <energy>
    <i name="e_fr_energy">     -0.48950981 </i>
    <i name="e_wo_entrp">     -0.48950981 </i>
    <i name="e_0_energy">     -0.48950981 </i>
   </energy>
  </scstep>
  <scstep>
   <time name="total">    1.29    0.80</time>
   <energy>
    <i name="e_fr_energy">     -0.47430169 </i>
    <i name="e_wo_entrp">     -0.47430169 </i>
    <i name="e_0_energy">     -0.47430169 </i>
   </energy>
  </scstep>
  <scstep>
   <time name="total">    1.29    0.80</time>
   <energy>
    <i name="e_fr_energy">     -0.48752127 </i>
    <i name="e_wo_entrp">     -0.48752127 </i>
    <i name="e_0_energy">     -0.48752127 </i>
   </energy>
  </scstep>
  <scstep>
   <time name="total">    1.29    0.80</time>
   <energy>
    <i name="e_fr_energy">     -0.50374077 </i>
    <i name="e_wo_entrp">     -0.50374077 </i>
    <i name="e_0_energy">     -0.50374077 </i>
   </energy>
  </scstep>
  <scstep>
   <time name="total">    1.27    0.78</time>
   <energy>
    <i name="e_fr_energy">     -0.50658081 </i>
    <i name="e_wo_entrp">     -0.50658081 </i>
    <i name="e_0_energy">     -0.50658081 </i>
   </energy>
  </scstep>
  <scstep>
   <time name="total">    1.39    0.82</time>
   <energy>
    <i name="e_fr_energy">     -0.50682406 </i>
    <i name="e_wo_entrp">     -0.50682406 </i>
    <i name="e_0_energy">     -0.50682406 </i>
   </energy>
  </scstep>
  <scstep>
   <time name="total">    1.29    0.80</time>
   <energy>
    <i name="e_fr_energy">     -0.50708970 </i>
    <i name="e_wo_entrp">     -0.50708970 </i>
    <i name="e_0_energy">     -0.50708970 </i>
   </energy>
  </scstep>
  <scstep>
   <time name="total">    1.31    0.81</time>
   <energy>
    <i name="e_fr_energy">     -0.50711262 </i>
    <i name="e_wo_entrp">     -0.50711262 </i>
    <i name="e_0_energy">     -0.50711262 </i>
   </energy>
  </scstep>
  <scstep>
   <time name="total">    1.31    0.81</time>
   <energy>
    <i name="e_fr_energy">     -0.50711396 </i>
    <i name="e_wo_entrp">     -0.50711396 </i>
    <i name="e_0_energy">     -0.50711396 </i>
   </energy>
  </scstep>
  <scstep>
   <time name="total">    1.31    0.81</time>
   <energy>
    <i name="e_fr_energy">     -0.50711282 </i>
    <i name="e_wo_entrp">     -0.50711282 </i>
    <i name="e_0_energy">     -0.50711282 </i>
   </energy>
  </scstep>
  <scstep>
   <time name="total">    1.26    0.77</time>
   <energy>
    <i name="e_fr_energy">     -0.50711292 </i>
    <i name="e_wo_entrp">     -0.50711292 </i>
    <i name="e_0_energy">     -0.50711292 </i>
   </energy>
  </scstep>
  <scstep>
   <time name="total">    1.29    0.79</time>
   <energy>
    <i name="e_fr_energy">     -0.50711292 </i>
    <i name="e_wo_entrp">     -0.50711292 </i>
    <i name="e_0_energy">     -0.50711292 </i>
   </energy>
  </scstep>
  <scstep>
   <time name="total">    1.26    0.77</time>
   <energy>
    <i name="e_fr_energy">     -0.50711295 </i>
    <i name="e_wo_entrp">     -0.50711295 </i>
    <i name="e_0_energy">     -0.50711295 </i>
   </energy>
  </scstep>
  <kpoints>
   <generation param="Gamma">
    <v type="int" name="divisions">       4        4        4 </v>
    <v name="usershift">      0.00000000       0.00000000       0.00000000 </v>
    <v name="genvec1">      0.25000000       0.00000000       0.00000000 </v>
    <v name="genvec2">      0.00000000       0.25000000       0.00000000 </v>
    <v name="genvec3">      0.00000000       0.00000000       0.25000000 </v>
    <v name="shift">      0.00000000       0.00000000       0.00000000 </v>
   </generation>
   <varray name="kpointlist" >
    <v>       0.00000000       0.00000000       0.00000000 </v>
    <v>       0.25000000       0.00000000       0.00000000 </v>
    <v>       0.50000000       0.00000000       0.00000000 </v>
    <v>       0.25000000       0.25000000       0.00000000 </v>
    <v>       0.00000000       0.00000000       0.25000000 </v>
    <v>       0.25000000       0.00000000       0.25000000 </v>
    <v>       0.00000000       0.25000000       0.25000000 </v>
    <v>       0.50000000       0.00000000       0.25000000 </v>
    <v>       0.25000000       0.25000000       0.25000000 </v>
    <v>       0.00000000       0.00000000       0.50000000 </v>
    <v>       0.25000000       0.00000000       0.50000000 </v>
    <v>       0.50000000       0.00000000       0.50000000 </v>
    <v>       0.25000000       0.25000000       0.50000000 </v>
   </varray>
   <varray name="weights" >
    <v>       0.01562500 </v>
    <v>       0.09375000 </v>
    <v>       0.04687500 </v>
    <v>       0.09375000 </v>
    <v>       0.03125000 </v>
    <v>       0.09375000 </v>
    <v>       0.09375000 </v>
    <v>       0.09375000 </v>
    <v>       0.18750000 </v>
    <v>       0.01562500 </v>
    <v>       0.09375000 </v>
    <v>       0.04687500 </v>
    <v>       0.09375000 </v>
   </varray>
  </kpoints>
  <varray name="dielectric_dft" >
   <v>       2.48038487       0.00000000       0.00000000 </v>
   <v>       0.00000000       2.48038487       0.00000000 </v>
   <v>       0.00000000       0.00000000       2.51289597 </v>
  </varray>
  <varray name="epsilon" >
   <v>       2.48038487       0.00000000       0.00000000 </v>
   <v>       0.00000000       2.48038487       0.00000000 </v>
   <v>       0.00000000       0.00000000       2.51289597 </v>
  </varray>
  <kpoints>
   <generation param="Gamma">
    <v type="int" name="divisions">       4        4        4 </v>
    <v name="usershift">      0.00000000       0.00000000       0.00000000 </v>
    <v name="genvec1">      0.25000000       0.00000000       0.00000000 </v>
    <v name="genvec2">      0.00000000       0.25000000       0.00000000 </v>
    <v name="genvec3">      0.00000000       0.00000000       0.25000000 </v>
    <v name="shift">      0.00000000       0.00000000       0.00000000 </v>
   </generation>
   <varray name="kpointlist" >
    <v>       0.00000000       0.00000000       0.00000000 </v>
    <v>       0.25000000       0.00000000       0.00000000 </v>
    <v>       0.50000000       0.00000000       0.00000000 </v>
    <v>       0.25000000       0.25000000       0.00000000 </v>
    <v>       0.00000000       0.00000000       0.25000000 </v>
    <v>       0.25000000       0.00000000       0.25000000 </v>
    <v>       0.00000000       0.25000000       0.25000000 </v>
    <v>       0.50000000       0.00000000       0.25000000 </v>
    <v>       0.25000000       0.25000000       0.25000000 </v>
    <v>       0.00000000       0.00000000       0.50000000 </v>
    <v>       0.25000000       0.00000000       0.50000000 </v>
    <v>       0.50000000       0.00000000       0.50000000 </v>
    <v>       0.25000000       0.25000000       0.50000000 </v>
   </varray>
   <varray name="weights" >
    <v>       0.01562500 </v>
    <v>       0.09375000 </v>
    <v>       0.04687500 </v>
    <v>       0.09375000 </v>
    <v>       0.03125000 </v>
    <v>       0.09375000 </v>
    <v>       0.09375000 </v>
    <v>       0.09375000 </v>
    <v>       0.18750000 </v>
    <v>       0.01562500 </v>
    <v>       0.09375000 </v>
    <v>       0.04687500 </v>
    <v>       0.09375000 </v>
   </varray>
  </kpoints>
  <array name="born_charges" >
   <dimension dim="1">ion</dimension>
   <set>
    <v>       2.98087458       0.00000000      -0.00000000 </v>
    <v>       0.00000000       3.62005782      -0.32066722 </v>
    <v>       0.00000000       0.27755592       3.42510799 </v>
   </set>
   <set>
    <v>       3.46026201       0.27677446       0.27770596 </v>
    <v>       0.27677446       3.14067039       0.16033361 </v>
    <v>      -0.24037048      -0.13877796       3.42510799 </v>
   </set>
   <set>
    <v>       3.46026201      -0.27677446      -0.27770596 </v>
    <v>      -0.27677446       3.14067039       0.16033361 </v>
    <v>       0.24037048      -0.13877796       3.42510799 </v>
   </set>
   <set>
    <v>      -1.31134032      -0.49334459      -0.31047297 </v>
    <v>      -0.43643554      -1.98912589      -0.67900315 </v>
    <v>      -0.24380807      -0.72138434      -1.71255399 </v>
   </set>
   <set>
    <v>      -2.22228610      -0.08949925       0.74327046 </v>
    <v>      -0.03259021      -1.07818010       0.07062409 </v>
    <v>       0.74664120       0.14954818      -1.71255399 </v>
   </set>
   <set>
    <v>      -1.41707289       0.49748027      -0.43279749 </v>
    <v>       0.55438932      -1.88339332       0.60837905 </v>
    <v>      -0.50283313       0.57183616      -1.71255399 </v>
   </set>
   <set>
    <v>      -1.31134032       0.49334459       0.31047297 </v>
    <v>       0.43643554      -1.98912589      -0.67900315 </v>
    <v>       0.24380807      -0.72138434      -1.71255399 </v>
   </set>
   <set>
    <v>      -2.22228610       0.08949925      -0.74327046 </v>
    <v>       0.03259021      -1.07818010       0.07062409 </v>
    <v>      -0.74664120       0.14954818      -1.71255399 </v>
   </set>
   <set>
    <v>      -1.41707289      -0.49748027       0.43279749 </v>
    <v>      -0.55438932      -1.88339332       0.60837905 </v>
    <v>       0.50283313       0.57183616      -1.71255399 </v>
   </set>
  </array>
  <time name="totalsc">  210.63  121.77</time>
  <eigenvalues>
   <array>
    <dimension dim="1">band</dimension>
    <dimension dim="2">kpoint</dimension>
    <dimension dim="3">spin</dimension>
    <field>eigene</field>
    <field>occ</field>
    <set>
     <set comment="spin 1">
      <set comment="kpoint 1">
       <r>  -18.1732    1.0000 </r>
       <r>  -16.6212    1.0000 </r>
       <r>  -16.6212    1.0000 </r>
       <r>  -15.9523    1.0000 </r>
       <r>  -15.9436    1.0000 </r>
       <r>  -15.9436    1.0000 </r>
       <r>   -6.8802    1.0000 </r>
       <r>   -6.8802    1.0000 </r>
       <r>   -4.1465    1.0000 </r>
       <r>   -4.0667    1.0000 </r>
       <r>   -3.9115    1.0000 </r>
       <r>   -3.9115    1.0000 </r>
       <r>   -1.6860    1.0000 </r>
       <r>   -1.6860    1.0000 </r>
       <r>   -1.3775    1.0000 </r>
       <r>   -1.1511    1.0000 </r>
       <r>   -0.1560    1.0000 </r>
       <r>   -0.1560    1.0000 </r>
       <r>   -0.0998    1.0000 </r>
       <r>    0.2600    1.0000 </r>
       <r>    0.2600    1.0000 </r>
       <r>    0.4606    1.0000 </r>
       <r>    1.0032    1.0000 </r>
       <r>    1.0032    1.0000 </r>
       <r>    7.3244    0.0000 </r>
       <r>   10.6100    0.0000 </r>
       <r>   10.6100    0.0000 </r>
       <r>   11.2355    0.0000 </r>
       <r>   11.2355    0.0000 </r>
      </set>
      <set comment="kpoint 2">
       <r>  -17.9892    1.0000 </r>
       <r>  -16.8210    1.0000 </r>
       <r>  -16.5949    1.0000 </r>
       <r>  -16.0196    1.0000 </r>
       <r>  -15.9768    1.0000 </r>
       <r>  -15.9433    1.0000 </r>
       <r>   -6.9584    1.0000 </r>
       <r>   -6.5103    1.0000 </r>
       <r>   -4.2180    1.0000 </r>
       <r>   -4.1550    1.0000 </r>
       <r>   -4.0347    1.0000 </r>
       <r>   -3.6186    1.0000 </r>
       <r>   -1.8736    1.0000 </r>
       <r>   -1.5571    1.0000 </r>
       <r>   -1.3497    1.0000 </r>
       <r>   -0.8971    1.0000 </r>
       <r>   -0.6982    1.0000 </r>
       <r>   -0.2400    1.0000 </r>
       <r>   -0.1616    1.0000 </r>
       <r>    0.1786    1.0000 </r>
       <r>    0.2762    1.0000 </r>
       <r>    0.4206    1.0000 </r>
       <r>    1.0532    1.0000 </r>
       <r>    1.1411    1.0000 </r>
       <r>    8.2337    0.0000 </r>
       <r>   10.6701    0.0000 </r>
       <r>   10.7211    0.0000 </r>
       <r>   11.2088    0.0000 </r>
       <r>   11.4823    0.0000 </r>
      </set>
      <set comment="kpoint 3">
       <r>  -17.6662    1.0000 </r>
       <r>  -17.1833    1.0000 </r>
       <r>  -16.5663    1.0000 </r>
       <r>  -16.0458    1.0000 </r>
       <r>  -16.0016    1.0000 </r>
       <r>  -15.9691    1.0000 </r>
       <r>   -7.0322    1.0000 </r>
       <r>   -6.0450    1.0000 </r>
       <r>   -4.5561    1.0000 </r>
       <r>   -4.0971    1.0000 </r>
       <r>   -4.0913    1.0000 </r>
       <r>   -3.2814    1.0000 </r>
       <r>   -1.8248    1.0000 </r>
       <r>   -1.6242    1.0000 </r>
       <r>   -1.4350    1.0000 </r>
       <r>   -1.0016    1.0000 </r>
       <r>   -0.7934    1.0000 </r>
       <r>   -0.4798    1.0000 </r>
       <r>   -0.2900    1.0000 </r>
       <r>    0.1945    1.0000 </r>
       <r>    0.2811    1.0000 </r>
       <r>    0.5586    1.0000 </r>
       <r>    1.0147    1.0000 </r>
       <r>    1.2410    1.0000 </r>
       <r>    9.6355    0.0000 </r>
       <r>   10.3727    0.0000 </r>
       <r>   10.9680    0.0000 </r>
       <r>   10.9897    0.0000 </r>
       <r>   11.9997    0.0000 </r>
      </set>
      <set comment="kpoint 4">
       <r>  -17.6767    1.0000 </r>
       <r>  -17.1528    1.0000 </r>
       <r>  -16.5972    1.0000 </r>
       <r>  -16.0411    1.0000 </r>
       <r>  -15.9994    1.0000 </r>
       <r>  -15.9657    1.0000 </r>
       <r>   -7.0607    1.0000 </r>
       <r>   -5.9066    1.0000 </r>
       <r>   -4.8498    1.0000 </r>
       <r>   -4.0752    1.0000 </r>
       <r>   -3.9345    1.0000 </r>
       <r>   -3.2890    1.0000 </r>
       <r>   -1.7844    1.0000 </r>
       <r>   -1.6284    1.0000 </r>
       <r>   -1.4658    1.0000 </r>
       <r>   -0.8985    1.0000 </r>
       <r>   -0.8483    1.0000 </r>
       <r>   -0.4298    1.0000 </r>
       <r>   -0.2444    1.0000 </r>
       <r>   -0.0095    1.0000 </r>
       <r>    0.2516    1.0000 </r>
       <r>    0.6671    1.0000 </r>
       <r>    0.9800    1.0000 </r>
       <r>    1.2627    1.0000 </r>
       <r>    9.4767    0.0000 </r>
       <r>   10.7363    0.0000 </r>
       <r>   10.7734    0.0000 </r>
       <r>   11.4433    0.0000 </r>
       <r>   11.5783    0.0000 </r>
      </set>
      <set comment="kpoint 5">
       <r>  -18.0480    1.0000 </r>
       <r>  -17.1813    1.0000 </r>
       <r>  -16.1704    1.0000 </r>
       <r>  -15.9566    1.0000 </r>
       <r>  -15.9543    1.0000 </r>
       <r>  -15.9242    1.0000 </r>
       <r>   -7.6539    1.0000 </r>
       <r>   -5.8681    1.0000 </r>
       <r>   -4.3683    1.0000 </r>
       <r>   -4.1828    1.0000 </r>
       <r>   -4.1326    1.0000 </r>
       <r>   -3.5520    1.0000 </r>
       <r>   -1.7668    1.0000 </r>
       <r>   -1.4406    1.0000 </r>
       <r>   -1.3111    1.0000 </r>
       <r>   -0.9483    1.0000 </r>
       <r>   -0.4251    1.0000 </r>
       <r>   -0.2934    1.0000 </r>
       <r>   -0.1660    1.0000 </r>
       <r>   -0.1635    1.0000 </r>
       <r>    0.1765    1.0000 </r>
       <r>    0.6316    1.0000 </r>
       <r>    1.0933    1.0000 </r>
       <r>    1.1784    1.0000 </r>
       <r>    7.9368    0.0000 </r>
       <r>   10.4212    0.0000 </r>
       <r>   10.6305    0.0000 </r>
       <r>   10.6430    0.0000 </r>
       <r>   11.6494    0.0000 </r>
      </set>
      <set comment="kpoint 6">
       <r>  -17.8808    1.0000 </r>
       <r>  -17.1574    1.0000 </r>
       <r>  -16.3560    1.0000 </r>
       <r>  -16.0151    1.0000 </r>
       <r>  -15.9932    1.0000 </r>
       <r>  -15.9418    1.0000 </r>
       <r>   -7.3295    1.0000 </r>
       <r>   -5.9260    1.0000 </r>
       <r>   -4.6336    1.0000 </r>
       <r>   -4.0980    1.0000 </r>
       <r>   -3.8310    1.0000 </r>
       <r>   -3.6540    1.0000 </r>
       <r>   -1.9397    1.0000 </r>
       <r>   -1.4340    1.0000 </r>
       <r>   -1.3060    1.0000 </r>
       <r>   -0.9668    1.0000 </r>
       <r>   -0.6450    1.0000 </r>
       <r>   -0.3029    1.0000 </r>
       <r>   -0.1685    1.0000 </r>
       <r>    0.0564    1.0000 </r>
       <r>    0.3179    1.0000 </r>
       <r>    0.4886    1.0000 </r>
       <r>    1.0114    1.0000 </r>
       <r>    1.1509    1.0000 </r>
       <r>    8.7081    0.0000 </r>
       <r>   10.4529    0.0000 </r>
       <r>   10.7380    0.0000 </r>
       <r>   10.9626    0.0000 </r>
       <r>   11.6998    0.0000 </r>
      </set>
      <set comment="kpoint 7">
       <r>  -17.8836    1.0000 </r>
       <r>  -17.1440    1.0000 </r>
       <r>  -16.3872    1.0000 </r>
       <r>  -16.0158    1.0000 </r>
       <r>  -15.9608    1.0000 </r>
       <r>  -15.9525    1.0000 </r>
       <r>   -7.3317    1.0000 </r>
       <r>   -5.9309    1.0000 </r>
       <r>   -4.6343    1.0000 </r>
       <r>   -4.1209    1.0000 </r>
       <r>   -3.8576    1.0000 </r>
       <r>   -3.5699    1.0000 </r>
       <r>   -1.8930    1.0000 </r>
       <r>   -1.3906    1.0000 </r>
       <r>   -1.3616    1.0000 </r>
       <r>   -1.1106    1.0000 </r>
       <r>   -0.6955    1.0000 </r>
       <r>   -0.2014    1.0000 </r>
       <r>   -0.1057    1.0000 </r>
       <r>    0.0396    1.0000 </r>
       <r>    0.3868    1.0000 </r>
       <r>    0.4106    1.0000 </r>
       <r>    0.9055    1.0000 </r>
       <r>    1.2522    1.0000 </r>
       <r>    8.6710    0.0000 </r>
       <r>   10.5753    0.0000 </r>
       <r>   10.8863    0.0000 </r>
       <r>   11.0297    0.0000 </r>
       <r>   11.5560    0.0000 </r>
      </set>
      <set comment="kpoint 8">
       <r>  -17.6296    1.0000 </r>
       <r>  -17.1637    1.0000 </r>
       <r>  -16.6349    1.0000 </r>
       <r>  -16.0525    1.0000 </r>
       <r>  -16.0082    1.0000 </r>
       <r>  -15.9601    1.0000 </r>
       <r>   -6.9578    1.0000 </r>
       <r>   -5.9817    1.0000 </r>
       <r>   -4.8545    1.0000 </r>
       <r>   -4.0818    1.0000 </r>
       <r>   -3.7937    1.0000 </r>
       <r>   -3.4626    1.0000 </r>
       <r>   -1.8863    1.0000 </r>
       <r>   -1.7945    1.0000 </r>
       <r>   -1.2432    1.0000 </r>
       <r>   -1.0503    1.0000 </r>
       <r>   -0.5819    1.0000 </r>
       <r>   -0.4815    1.0000 </r>
       <r>   -0.1363    1.0000 </r>
       <r>    0.1295    1.0000 </r>
       <r>    0.3586    1.0000 </r>
       <r>    0.5965    1.0000 </r>
       <r>    0.8238    1.0000 </r>
       <r>    1.1737    1.0000 </r>
       <r>    9.9113    0.0000 </r>
       <r>   10.4329    0.0000 </r>
       <r>   10.8825    0.0000 </r>
       <r>   11.3095    0.0000 </r>
       <r>   11.8036    0.0000 </r>
      </set>
      <set comment="kpoint 9">
       <r>  -17.6314    1.0000 </r>
       <r>  -17.1643    1.0000 </r>
       <r>  -16.6266    1.0000 </r>
       <r>  -16.0433    1.0000 </r>
       <r>  -16.0195    1.0000 </r>
       <r>  -15.9653    1.0000 </r>
       <r>   -6.9662    1.0000 </r>
       <r>   -5.8808    1.0000 </r>
       <r>   -5.0226    1.0000 </r>
       <r>   -4.0457    1.0000 </r>
       <r>   -3.7658    1.0000 </r>
       <r>   -3.4767    1.0000 </r>
       <r>   -1.9211    1.0000 </r>
       <r>   -1.6287    1.0000 </r>
       <r>   -1.4087    1.0000 </r>
       <r>   -0.9262    1.0000 </r>
       <r>   -0.6635    1.0000 </r>
       <r>   -0.4529    1.0000 </r>
       <r>   -0.0624    1.0000 </r>
       <r>    0.0805    1.0000 </r>
       <r>    0.3168    1.0000 </r>
       <r>    0.6046    1.0000 </r>
       <r>    0.8639    1.0000 </r>
       <r>    1.1287    1.0000 </r>
       <r>    9.7433    0.0000 </r>
       <r>   10.6629    0.0000 </r>
       <r>   10.9946    0.0000 </r>
       <r>   11.3764    0.0000 </r>
       <r>   11.5209    0.0000 </r>
      </set>
      <set comment="kpoint 10">
       <r>  -17.6950    1.0000 </r>
       <r>  -17.6950    1.0000 </r>
       <r>  -15.9944    1.0000 </r>
       <r>  -15.9583    1.0000 </r>
       <r>  -15.9583    1.0000 </r>
       <r>  -15.9151    1.0000 </r>
       <r>   -7.9446    1.0000 </r>
       <r>   -4.9399    1.0000 </r>
       <r>   -4.9399    1.0000 </r>
       <r>   -4.2619    1.0000 </r>
[...]
       <r>    1.2152    1.0000 </r>
       <r>    9.3094    0.0000 </r>
       <r>    9.3094    0.0000 </r>
       <r>   10.4319    0.0000 </r>
       <r>   10.9970    0.0000 </r>
       <r>   10.9970    0.0000 </r>
      </set>
      <set comment="kpoint 11">
       <r>  -17.6438    1.0000 </r>
       <r>  -17.5031    1.0000 </r>
       <r>  -16.2505    1.0000 </r>
       <r>  -16.0278    1.0000 </r>
       <r>  -15.9744    1.0000 </r>
       <r>  -15.9441    1.0000 </r>
       <r>   -7.5185    1.0000 </r>
       <r>   -5.3552    1.0000 </r>
       <r>   -5.0140    1.0000 </r>
       <r>   -4.0976    1.0000 </r>
       <r>   -3.9738    1.0000 </r>
       <r>   -3.4565    1.0000 </r>
       <r>   -1.7496    1.0000 </r>
       <r>   -1.7310    1.0000 </r>
       <r>   -1.2096    1.0000 </r>
       <r>   -0.9383    1.0000 </r>
       <r>   -0.7547    1.0000 </r>
       <r>   -0.2558    1.0000 </r>
       <r>   -0.1582    1.0000 </r>
       <r>    0.0419    1.0000 </r>
       <r>    0.1856    1.0000 </r>
       <r>    0.7967    1.0000 </r>
       <r>    0.8306    1.0000 </r>
       <r>    1.1409    1.0000 </r>
       <r>    9.6779    0.0000 </r>
       <r>    9.8386    0.0000 </r>
       <r>   10.7229    0.0000 </r>
       <r>   11.0307    0.0000 </r>
       <r>   11.3877    0.0000 </r>
      </set>
      <set comment="kpoint 12">
       <r>  -17.5887    1.0000 </r>
       <r>  -17.1428    1.0000 </r>
       <r>  -16.7057    1.0000 </r>
       <r>  -16.0741    1.0000 </r>
       <r>  -15.9942    1.0000 </r>
       <r>  -15.9603    1.0000 </r>
       <r>   -6.8771    1.0000 </r>
       <r>   -5.9156    1.0000 </r>
       <r>   -5.0496    1.0000 </r>
       <r>   -3.9976    1.0000 </r>
       <r>   -3.7060    1.0000 </r>
       <r>   -3.6152    1.0000 </r>
       <r>   -1.9319    1.0000 </r>
       <r>   -1.9236    1.0000 </r>
       <r>   -1.1460    1.0000 </r>
       <r>   -0.8288    1.0000 </r>
       <r>   -0.7479    1.0000 </r>
       <r>   -0.2751    1.0000 </r>
       <r>    0.0221    1.0000 </r>
       <r>    0.1877    1.0000 </r>
       <r>    0.3974    1.0000 </r>
       <r>    0.4038    1.0000 </r>
       <r>    0.6983    1.0000 </r>
       <r>    1.1190    1.0000 </r>
       <r>   10.2303    0.0000 </r>
       <r>   10.7280    0.0000 </r>
       <r>   11.0130    0.0000 </r>
       <r>   11.1997    0.0000 </r>
       <r>   11.5424    0.0000 </r>
      </set>
      <set comment="kpoint 13">
       <r>  -17.5768    1.0000 </r>
       <r>  -17.1872    1.0000 </r>
       <r>  -16.6533    1.0000 </r>
       <r>  -16.0621    1.0000 </r>
       <r>  -15.9943    1.0000 </r>
       <r>  -15.9937    1.0000 </r>
       <r>   -6.8579    1.0000 </r>
       <r>   -5.8711    1.0000 </r>
       <r>   -5.1583    1.0000 </r>
       <r>   -3.8985    1.0000 </r>
       <r>   -3.7959    1.0000 </r>
       <r>   -3.6157    1.0000 </r>
       <r>   -1.9744    1.0000 </r>
       <r>   -1.7477    1.0000 </r>
       <r>   -1.2661    1.0000 </r>
       <r>   -0.9010    1.0000 </r>
       <r>   -0.6237    1.0000 </r>
       <r>   -0.4230    1.0000 </r>
       <r>    0.1485    1.0000 </r>
       <r>    0.2550    1.0000 </r>
       <r>    0.3279    1.0000 </r>
       <r>    0.5707    1.0000 </r>
       <r>    0.7164    1.0000 </r>
       <r>    0.9236    1.0000 </r>
       <r>   10.1797    0.0000 </r>
       <r>   10.6520    0.0000 </r>
       <r>   10.9646    0.0000 </r>
       <r>   11.3062    0.0000 </r>
       <r>   11.7244    0.0000 </r>
      </set>
     </set>
    </set>
   </array>
  </eigenvalues>
  <separator name="orbital magnetization" >
   <v name="MAGDIPOLOUT">      0.00000000      0.00000000      0.00000000</v>
  </separator>
  <dos>
   <i name="efermi">      1.78459063 </i>
   <total>
    <array>
     <dimension dim="1">gridpoints</dimension>
     <dimension dim="2">spin</dimension>
     <field>energy</field>
     <field>total</field>
     <field>integrated</field>
     <set>
      <set comment="spin 1">
       <r>   -19.6819     0.0000     0.0000 </r>
       <r>   -19.5713     0.0000     0.0000 </r>
       <r>   -19.4606     0.0000     0.0000 </r>
       <r>   -19.3500     0.0000     0.0000 </r>
       <r>   -19.2394     0.0000     0.0000 </r>
       <r>   -19.1287     0.0000     0.0000 </r>
       <r>   -19.0181     0.0000     0.0000 </r>
       <r>   -18.9075     0.0000     0.0000 </r>
       <r>   -18.7968     0.0000     0.0000 </r>
       <r>   -18.6862     0.0000     0.0000 </r>
       <r>   -18.5755     0.0000     0.0000 </r>
       <r>   -18.4649     0.0000     0.0000 </r>
       <r>   -18.3543     0.0015     0.0002 </r>
       <r>   -18.2436     0.0455     0.0052 </r>
       <r>   -18.1330     0.2561     0.0335 </r>
       <r>   -18.0224     0.9593     0.1397 </r>
       <r>   -17.9117     2.1809     0.3809 </r>
       <r>   -17.8011     2.2489     0.6297 </r>
       <r>   -17.6905     3.1591     0.9793 </r>
       <r>   -17.5798     6.7108     1.7217 </r>
       <r>   -17.4692     3.7367     2.1351 </r>
       <r>   -17.3586     0.7659     2.2198 </r>
       <r>   -17.2479     1.6701     2.4046 </r>
       <r>   -17.1373     7.3371     3.2163 </r>
       <r>   -17.0267     4.6957     3.7358 </r>
       <r>   -16.9160     0.5594     3.7977 </r>
       <r>   -16.8054     0.9811     3.9063 </r>
       <r>   -16.6948     2.7444     4.2099 </r>
       <r>   -16.5841     6.4648     4.9251 </r>
       <r>   -16.4735     3.7440     5.3393 </r>
       <r>   -16.3629     1.9907     5.5596 </r>
       <r>   -16.2522     2.2028     5.8033 </r>
       <r>   -16.1416     2.9974     6.1349 </r>
       <r>   -16.0310    16.0650     7.9122 </r>
       <r>   -15.9203    27.1674    10.9179 </r>
       <r>   -15.8097     9.2460    11.9408 </r>
       <r>   -15.6991     0.5312    11.9995 </r>
       <r>   -15.5884     0.0041    12.0000 </r>
       <r>   -15.4778     0.0000    12.0000 </r>
       <r>   -15.3672     0.0000    12.0000 </r>
       <r>   -15.2565     0.0000    12.0000 </r>
       <r>   -15.1459     0.0000    12.0000 </r>
       <r>   -15.0353     0.0000    12.0000 </r>
       <r>   -14.9246     0.0000    12.0000 </r>
       <r>   -14.8140     0.0000    12.0000 </r>
       <r>   -14.7034     0.0000    12.0000 </r>
       <r>   -14.5927     0.0000    12.0000 </r>
       <r>   -14.4821     0.0000    12.0000 </r>
       <r>   -14.3715     0.0000    12.0000 </r>
       <r>   -14.2608     0.0000    12.0000 </r>
       <r>   -14.1502     0.0000    12.0000 </r>
       <r>   -14.0395     0.0000    12.0000 </r>
       <r>   -13.9289     0.0000    12.0000 </r>
       <r>   -13.8183     0.0000    12.0000 </r>
       <r>   -13.7076     0.0000    12.0000 </r>
       <r>   -13.5970     0.0000    12.0000 </r>
       <r>   -13.4864     0.0000    12.0000 </r>
       <r>   -13.3757     0.0000    12.0000 </r>
       <r>   -13.2651     0.0000    12.0000 </r>
       <r>   -13.1545     0.0000    12.0000 </r>
       <r>   -13.0438     0.0000    12.0000 </r>
       <r>   -12.9332     0.0000    12.0000 </r>
       <r>   -12.8226     0.0000    12.0000 </r>
       <r>   -12.7119     0.0000    12.0000 </r>
       <r>   -12.6013     0.0000    12.0000 </r>
       <r>   -12.4907     0.0000    12.0000 </r>
       <r>   -12.3800     0.0000    12.0000 </r>
       <r>   -12.2694     0.0000    12.0000 </r>
       <r>   -12.1588     0.0000    12.0000 </r>
       <r>   -12.0481     0.0000    12.0000 </r>
       <r>   -11.9375     0.0000    12.0000 </r>
       <r>   -11.8269     0.0000    12.0000 </r>
       <r>   -11.7162     0.0000    12.0000 </r>
       <r>   -11.6056     0.0000    12.0000 </r>
       <r>   -11.4950     0.0000    12.0000 </r>
       <r>   -11.3843     0.0000    12.0000 </r>
       <r>   -11.2737     0.0000    12.0000 </r>
       <r>   -11.1631     0.0000    12.0000 </r>
       <r>   -11.0524     0.0000    12.0000 </r>
       <r>   -10.9418     0.0000    12.0000 </r>
       <r>   -10.8312     0.0000    12.0000 </r>
       <r>   -10.7205     0.0000    12.0000 </r>
       <r>   -10.6099     0.0000    12.0000 </r>
       <r>   -10.4993     0.0000    12.0000 </r>
       <r>   -10.3886     0.0000    12.0000 </r>
       <r>   -10.2780     0.0000    12.0000 </r>
       <r>   -10.1674     0.0000    12.0000 </r>
       <r>   -10.0567     0.0000    12.0000 </r>
       <r>    -9.9461     0.0000    12.0000 </r>
       <r>    -9.8355     0.0000    12.0000 </r>
       <r>    -9.7248     0.0000    12.0000 </r>
       <r>    -9.6142     0.0000    12.0000 </r>
       <r>    -9.5035     0.0000    12.0000 </r>
       <r>    -9.3929     0.0000    12.0000 </r>
       <r>    -9.2823     0.0000    12.0000 </r>
       <r>    -9.1716     0.0000    12.0000 </r>
       <r>    -9.0610     0.0000    12.0000 </r>
       <r>    -8.9504     0.0000    12.0000 </r>
       <r>    -8.8397     0.0000    12.0000 </r>
       <r>    -8.7291     0.0000    12.0000 </r>
       <r>    -8.6185     0.0000    12.0000 </r>
       <r>    -8.5078     0.0000    12.0000 </r>
       <r>    -8.3972     0.0000    12.0000 </r>
       <r>    -8.2866     0.0000    12.0000 </r>
       <r>    -8.1759     0.0002    12.0000 </r>
       <r>    -8.0653     0.0122    12.0014 </r>
       <r>    -7.9547     0.1128    12.0138 </r>
       <r>    -7.8440     0.1374    12.0290 </r>
       <r>    -7.7334     0.0952    12.0396 </r>
       <r>    -7.6228     0.4222    12.0863 </r>
       <r>    -7.5121     0.9803    12.1947 </r>
       <r>    -7.4015     1.2347    12.3313 </r>
       <r>    -7.2909     1.9639    12.5486 </r>
       <r>    -7.1802     1.0156    12.6610 </r>
       <r>    -7.0696     1.4171    12.8178 </r>
       <r>    -6.9590     4.6475    13.3319 </r>
       <r>    -6.8483     4.7177    13.8539 </r>
       <r>    -6.7377     1.4905    14.0188 </r>
       <r>    -6.6271     0.1953    14.0404 </r>
       <r>    -6.5164     0.7067    14.1186 </r>
       <r>    -6.4058     0.7875    14.2057 </r>
       <r>    -6.2952     0.1162    14.2186 </r>
       <r>    -6.1845     0.0265    14.2215 </r>
       <r>    -6.0739     0.5363    14.2808 </r>
       <r>    -5.9633     3.4551    14.6631 </r>
       <r>    -5.8526     6.9535    15.4324 </r>
       <r>    -5.7420     2.9531    15.7591 </r>
       <r>    -5.6314     0.1989    15.7811 </r>
       <r>    -5.5207     0.0179    15.7831 </r>
       <r>    -5.4101     0.3549    15.8223 </r>
       <r>    -5.2995     0.9982    15.9327 </r>
       <r>    -5.1888     0.9385    16.0366 </r>
       <r>    -5.0782     2.2120    16.2813 </r>
       <r>    -4.9675     3.8901    16.7117 </r>
       <r>    -4.8569     2.9575    17.0389 </r>
       <r>    -4.7463     1.8714    17.2459 </r>
       <r>    -4.6356     1.8062    17.4458 </r>
       <r>    -4.5250     1.9863    17.6655 </r>
       <r>    -4.4144     0.6184    17.7339 </r>
       <r>    -4.3037     0.7558    17.8175 </r>
       <r>    -4.1931     3.1287    18.1637 </r>
       <r>    -4.0825     8.9389    19.1526 </r>
       <r>    -3.9718     9.6294    20.2180 </r>
       <r>    -3.8612     6.6113    20.9494 </r>
       <r>    -3.7506     6.7543    21.6967 </r>
       <r>    -3.6399     5.6348    22.3201 </r>
       <r>    -3.5293     5.6850    22.9490 </r>
       <r>    -3.4187     5.0954    23.5127 </r>
       <r>    -3.3080     2.6722    23.8084 </r>
       <r>    -3.1974     1.4627    23.9702 </r>
       <r>    -3.0868     0.2632    23.9993 </r>
       <r>    -2.9761     0.0061    24.0000 </r>
       <r>    -2.8655     0.0000    24.0000 </r>
       <r>    -2.7549     0.0000    24.0000 </r>
       <r>    -2.6442     0.0000    24.0000 </r>
       <r>    -2.5336     0.0000    24.0000 </r>
       <r>    -2.4230     0.0000    24.0000 </r>
       <r>    -2.3123     0.0000    24.0000 </r>
       <r>    -2.2017     0.0015    24.0002 </r>
       <r>    -2.0911     0.1646    24.0184 </r>
       <r>    -1.9804     2.6463    24.3112 </r>
       <r>    -1.8698     7.9721    25.1931 </r>
       <r>    -1.7592     8.1269    26.0923 </r>
       <r>    -1.6485     6.8118    26.8459 </r>
       <r>    -1.5379     5.3393    27.4366 </r>
       <r>    -1.4273     6.3915    28.1437 </r>
       <r>    -1.3166     8.5094    29.0851 </r>
       <r>    -1.2060     5.9209    29.7402 </r>
       <r>    -1.0954     3.8802    30.1695 </r>
       <r>    -0.9847     4.8733    30.7086 </r>
       <r>    -0.8741     8.3981    31.6377 </r>
       <r>    -0.7635     6.9395    32.4055 </r>
       <r>    -0.6528     7.3906    33.2231 </r>
       <r>    -0.5422     6.2978    33.9199 </r>
       <r>    -0.4315     6.2710    34.6137 </r>
       <r>    -0.3209     5.9475    35.2717 </r>
       <r>    -0.2103     8.0893    36.1666 </r>
       <r>    -0.0996     9.8361    37.2548 </r>
       <r>     0.0110     8.1555    38.1571 </r>
       <r>     0.1216     8.9360    39.1457 </r>
       <r>     0.2323     9.4817    40.1947 </r>
       <r>     0.3429    10.6743    41.3757 </r>
       <r>     0.4535     8.7123    42.3396 </r>
       <r>     0.5642     5.8065    42.9820 </r>
       <r>     0.6748     6.2809    43.6769 </r>
       <r>     0.7854     5.2605    44.2588 </r>
       <r>     0.8961     6.6652    44.9962 </r>
       <r>     1.0067     6.7100    45.7386 </r>
       <r>     1.1173     7.8278    46.6046 </r>
       <r>     1.2280     8.2926    47.5221 </r>
       <r>     1.3386     3.7647    47.9386 </r>
       <r>     1.4492     0.5420    47.9985 </r>
       <r>     1.5599     0.0132    48.0000 </r>
       <r>     1.6705     0.0000    48.0000 </r>
       <r>     1.7811     0.0000    48.0000 </r>
       <r>     1.8918     0.0000    48.0000 </r>
       <r>     2.0024     0.0000    48.0000 </r>
       <r>     2.1130     0.0000    48.0000 </r>
       <r>     2.2237     0.0000    48.0000 </r>
       <r>     2.3343     0.0000    48.0000 </r>
       <r>     2.4449     0.0000    48.0000 </r>
       <r>     2.5556     0.0000    48.0000 </r>
       <r>     2.6662     0.0000    48.0000 </r>
       <r>     2.7768     0.0000    48.0000 </r>
       <r>     2.8875     0.0000    48.0000 </r>
       <r>     2.9981     0.0000    48.0000 </r>
       <r>     3.1087     0.0000    48.0000 </r>
       <r>     3.2194     0.0000    48.0000 </r>
       <r>     3.3300     0.0000    48.0000 </r>
       <r>     3.4406     0.0000    48.0000 </r>
       <r>     3.5513     0.0000    48.0000 </r>
       <r>     3.6619     0.0000    48.0000 </r>
       <r>     3.7725     0.0000    48.0000 </r>
       <r>     3.8832     0.0000    48.0000 </r>
       <r>     3.9938     0.0000    48.0000 </r>
       <r>     4.1045     0.0000    48.0000 </r>
       <r>     4.2151     0.0000    48.0000 </r>
       <r>     4.3257     0.0000    48.0000 </r>
       <r>     4.4364     0.0000    48.0000 </r>
       <r>     4.5470     0.0000    48.0000 </r>
       <r>     4.6576     0.0000    48.0000 </r>
       <r>     4.7683     0.0000    48.0000 </r>
       <r>     4.8789     0.0000    48.0000 </r>
       <r>     4.9895     0.0000    48.0000 </r>
       <r>     5.1002     0.0000    48.0000 </r>
       <r>     5.2108     0.0000    48.0000 </r>
       <r>     5.3214     0.0000    48.0000 </r>
       <r>     5.4321     0.0000    48.0000 </r>
       <r>     5.5427     0.0000    48.0000 </r>
       <r>     5.6533     0.0000    48.0000 </r>
       <r>     5.7640     0.0000    48.0000 </r>
       <r>     5.8746     0.0000    48.0000 </r>
       <r>     5.9852     0.0000    48.0000 </r>
       <r>     6.0959     0.0000    48.0000 </r>
       <r>     6.2065     0.0000    48.0000 </r>
       <r>     6.3171     0.0000    48.0000 </r>
       <r>     6.4278     0.0000    48.0000 </r>
       <r>     6.5384     0.0000    48.0000 </r>
       <r>     6.6490     0.0000    48.0000 </r>
       <r>     6.7597     0.0000    48.0000 </r>
       <r>     6.8703     0.0000    48.0000 </r>
       <r>     6.9809     0.0000    48.0000 </r>
       <r>     7.0916     0.0001    48.0000 </r>
       <r>     7.2022     0.0117    48.0013 </r>
       <r>     7.3128     0.1110    48.0136 </r>
       <r>     7.4235     0.1368    48.0287 </r>
       <r>     7.5341     0.0223    48.0312 </r>
       <r>     7.6447     0.0004    48.0313 </r>
       <r>     7.7554     0.0029    48.0316 </r>
       <r>     7.8660     0.0866    48.0412 </r>
       <r>     7.9766     0.3138    48.0759 </r>
       <r>     8.0873     0.1846    48.0963 </r>
       <r>     8.1979     0.4959    48.1512 </r>
       <r>     8.3085     0.9301    48.2541 </r>
       <r>     8.4192     0.2387    48.2805 </r>
       <r>     8.5298     0.0558    48.2866 </r>
       <r>     8.6404     0.8023    48.3754 </r>
       <r>     8.7511     1.8602    48.5812 </r>
       <r>     8.8617     0.6472    48.6528 </r>
       <r>     8.9724     0.0310    48.6562 </r>
       <r>     9.0830     0.0006    48.6563 </r>
       <r>     9.1936     0.0284    48.6594 </r>
       <r>     9.3043     0.2499    48.6871 </r>
       <r>     9.4149     0.5728    48.7505 </r>
       <r>     9.5255     1.0734    48.8692 </r>
       <r>     9.6362     1.4350    49.0280 </r>
       <r>     9.7468     3.0563    49.3661 </r>
       <r>     9.8574     2.9882    49.6967 </r>
       <r>     9.9681     1.7621    49.8917 </r>
       <r>    10.0787     0.5422    49.9516 </r>
       <r>    10.1893     1.0552    50.0684 </r>
       <r>    10.3000     1.3853    50.2216 </r>
       <r>    10.4106     2.0451    50.4479 </r>
       <r>    10.5212     3.1305    50.7942 </r>
       <r>    10.6319     5.0510    51.3531 </r>
       <r>    10.7425     9.0335    52.3525 </r>
       <r>    10.8531     6.2344    53.0422 </r>
       <r>    10.9638     6.4924    53.7605 </r>
       <r>    11.0744     7.3693    54.5758 </r>
       <r>    11.1850     3.0495    54.9132 </r>
       <r>    11.2957     3.6410    55.3160 </r>
       <r>    11.4063     5.6402    55.9400 </r>
       <r>    11.5169     6.3440    56.6418 </r>
       <r>    11.6276     5.3711    57.2361 </r>
       <r>    11.7382     3.3565    57.6074 </r>
       <r>    11.8488     2.1748    57.8480 </r>
       <r>    11.9595     0.7433    57.9303 </r>
       <r>    12.0701     0.4949    57.9850 </r>
       <r>    12.1807     0.1310    57.9995 </r>
       <r>    12.2914     0.0044    58.0000 </r>
       <r>    12.4020     0.0000    58.0000 </r>
       <r>    12.5126     0.0000    58.0000 </r>
       <r>    12.6233     0.0000    58.0000 </r>
       <r>    12.7339     0.0000    58.0000 </r>
       <r>    12.8445     0.0000    58.0000 </r>
       <r>    12.9552     0.0000    58.0000 </r>
       <r>    13.0658     0.0000    58.0000 </r>
       <r>    13.1764     0.0000    58.0000 </r>
       <r>    13.2871     0.0000    58.0000 </r>
       <r>    13.3977     0.0000    58.0000 </r>
       <r>    13.5084     0.0000    58.0000 </r>
      </set>
     </set>
    </array>
   </total>
  </dos>
 </calculation>
 <structure name="finalpos" >
  <crystal>
   <varray name="basis" >
    <v>       4.87342988       0.00000000       0.00000000 </v>
    <v>      -2.43671494       4.22051408       0.00000000 </v>
    <v>       0.00000000       0.00000000       5.37418982 </v>
   </varray>
   <i name="volume">    110.53837516 </i>
   <varray name="rec_basis" >
    <v>       0.20519429       0.11846898      -0.00000000 </v>
    <v>       0.00000000       0.23693796       0.00000000 </v>
    <v>       0.00000000      -0.00000000       0.18607456 </v>
   </varray>
  </crystal>
  <varray name="positions" >
   <v>       0.46478891       0.00000000       0.66666667 </v>
   <v>       0.00000000       0.46478891       0.33333333 </v>
   <v>       0.53521109       0.53521109       0.00000000 </v>
   <v>       0.13560018       0.72415721       0.55409589 </v>
   <v>       0.27584279       0.41144297       0.22076255 </v>
   <v>       0.58855703       0.86439982       0.88742922 </v>
   <v>       0.41144297       0.27584279       0.77923745 </v>
   <v>       0.86439982       0.58855703       0.11257078 </v>
   <v>       0.72415721       0.13560018       0.44590411 </v>
  </varray>
 </structure>
</modeling>
