<?xml version="1.0" encoding="ISO-8859-1"?>
<modeling>
 <generator>
  <i name="program" type="string">vasp </i>
  <i name="version" type="string">6.4.1  </i>
  <i name="subversion" type="string">05Apr23 (build Sep  6 2023 20:49:31) complex                          parallel </i>
  <i name="platform" type="string">LinuxNV </i>
  <i name="date" type="string">2023 10 19 </i>
  <i name="time" type="string">14:08:49 </i>
 </generator>
 <incar>
  <i type="string" name="PREC">Accurate</i>
  <i type="string" name="ALGO">Fast</i>
  <i name="EDIFF">      0.00000001</i>
  <i name="ENCUT">    500.00000000</i>
  <i type="int" name="ISMEAR">     0</i>
  <i name="SIGMA">      0.10000000</i>
  <i type="logical" name="LEPSILON"> T  </i>
 </incar>
 <primitive_cell>
  <structure name="primitive_cell" >
   <crystal>
    <varray name="basis" >
     <v>       4.87342988       0.00000000       0.00000000 </v>
     <v>      -2.43671494       4.22051408       0.00000000 </v>
     <v>       0.00000000       0.00000000       5.37418982 </v>
    </varray>
    <i name="volume">    110.53837516 </i>
    <varray name="rec_basis" >
     <v>       0.20519429       0.11846898      -0.00000000 </v>
     <v>       0.00000000       0.23693796       0.00000000 </v>
     <v>       0.00000000      -0.00000000       0.18607456 </v>
    </varray>
   </crystal>
   <varray name="positions" >
    <v>       0.46457701       0.00000000       0.66666667 </v>
    <v>       0.00000000       0.46457701       0.33333333 </v>
    <v>       0.53542299       0.53542299       0.00000000 </v>
    <v>       0.13562164       0.72413619       0.55429239 </v>
    <v>       0.27586381       0.41148546       0.22095906 </v>
    <v>       0.58851454       0.86437836       0.88762572 </v>
    <v>       0.41148546       0.27586381       0.77904094 </v>
    <v>       0.86437836       0.58851454       0.11237428 </v>
    <v>       0.72413619       0.13562164       0.44570761 </v>
   </varray>
  </structure>
  <varray name="primitive_index" >
   <v type="int" >        1 </v>
   <v type="int" >        2 </v>
   <v type="int" >        3 </v>
   <v type="int" >        4 </v>
   <v type="int" >        5 </v>
   <v type="int" >        6 </v>
   <v type="int" >        7 </v>
   <v type="int" >        8 </v>
   <v type="int" >        9 </v>
  </varray>
 </primitive_cell>
 <kpoints>
  <generation param="Gamma">
   <v type="int" name="divisions">       4        4        4 </v>
   <v name="usershift">      0.00000000       0.00000000       0.00000000 </v>
   <v name="genvec1">      0.25000000       0.00000000       0.00000000 </v>
   <v name="genvec2">      0.00000000       0.25000000       0.00000000 </v>
   <v name="genvec3">      0.00000000       0.00000000       0.25000000 </v>
   <v name="shift">      0.00000000       0.00000000       0.00000000 </v>
  </generation>
  <varray name="kpointlist" >
   <v>       0.00000000       0.00000000       0.00000000 </v>
   <v>       0.25000000       0.00000000       0.00000000 </v>
   <v>       0.50000000       0.00000000       0.00000000 </v>
   <v>       0.25000000       0.25000000       0.00000000 </v>
   <v>       0.00000000       0.00000000       0.25000000 </v>
   <v>       0.25000000       0.00000000       0.25000000 </v>
   <v>       0.00000000       0.25000000       0.25000000 </v>
   <v>       0.50000000       0.00000000       0.25000000 </v>
   <v>       0.25000000       0.25000000       0.25000000 </v>
   <v>       0.00000000       0.00000000       0.50000000 </v>
   <v>       0.25000000       0.00000000       0.50000000 </v>
   <v>       0.50000000       0.00000000       0.50000000 </v>
   <v>       0.25000000       0.25000000       0.50000000 </v>
  </varray>
  <varray name="weights" >
   <v>       0.01562500 </v>
   <v>       0.09375000 </v>
   <v>       0.04687500 </v>
   <v>       0.09375000 </v>
   <v>       0.03125000 </v>
   <v>       0.09375000 </v>
   <v>       0.09375000 </v>
   <v>       0.09375000 </v>
   <v>       0.18750000 </v>
   <v>       0.01562500 </v>
   <v>       0.09375000 </v>
   <v>       0.04687500 </v>
   <v>       0.09375000 </v>
  </varray>
 </kpoints>
 <parameters>
  <separator name="general" >
   <i type="string" name="SYSTEM">unknown system</i>
   <i type="logical" name="LCOMPAT"> F  </i>
  </separator>
  <separator name="electronic" >
   <i type="string" name="PREC">accura</i>
   <i name="ENMAX">    500.00000000</i>
   <i name="ENAUG">    605.39200000</i>
   <i name="EDIFF">      0.00000001</i>
   <i type="int" name="IALGO">    68</i>
   <i type="int" name="IWAVPR">    10</i>
   <i type="int" name="NBANDS">    29</i>
   <i type="int" name="NBANDSLOW">    -1</i>
   <i type="int" name="NBANDSHIGH">    -1</i>
   <i name="NELECT">     48.00000000</i>
   <i type="int" name="TURBO">     0</i>
   <i type="int" name="IRESTART">     0</i>
   <i type="int" name="NREBOOT">     0</i>
   <i type="int" name="NMIN">     0</i>
   <i name="EREF">      0.00000000</i>
   <separator name="electronic smearing" >
    <i type="int" name="ISMEAR">     0</i>
    <i name="SIGMA">      0.10000000</i>
    <i name="KSPACING">      0.50000000</i>
    <i type="logical" name="KGAMMA"> T  </i>
    <i type="logical" name="KBLOWUP"> T  </i>
   </separator>
   <separator name="electronic projectors" >
    <i type="logical" name="LREAL"> F  </i>
    <v name="ROPT">      0.00000000      0.00000000</v>
    <i type="int" name="LMAXPAW">  -100</i>
    <i type="int" name="LMAXMIX">     2</i>
    <i type="logical" name="NLSPLINE"> F  </i>
   </separator>
   <separator name="electronic startup" >
    <i type="int" name="ISTART">     0</i>
    <i type="int" name="ICHARG">     2</i>
    <i type="int" name="INIWAV">     1</i>
   </separator>
   <separator name="electronic spin" >
    <i type="int" name="ISPIN">     1</i>
    <i type="logical" name="LNONCOLLINEAR"> F  </i>
    <v name="MAGMOM">      1.00000000      1.00000000      1.00000000      1.00000000      1.00000000      1.00000000      1.00000000      1.00000000      1.00000000</v>
    <i name="NUPDOWN">     -1.00000000</i>
    <i type="logical" name="LSORBIT"> F  </i>
    <v name="SAXIS">      0.00000000      0.00000000      1.00000000</v>
    <i type="logical" name="LSPIRAL"> F  </i>
    <v name="QSPIRAL">      0.00000000      0.00000000      0.00000000</v>
    <i type="logical" name="LZEROZ"> F  </i>
   </separator>
   <separator name="electronic exchange-correlation" >
    <i type="logical" name="LASPH"> F  </i>
    <i type="logical" name="LMETAGGA"> F  </i>
   </separator>
   <separator name="electronic convergence" >
    <i type="int" name="NELM">    60</i>
    <i type="int" name="NELMDL">    -5</i>
    <i type="int" name="NELMIN">     2</i>
    <i name="ENINI">    500.00000000</i>
    <separator name="electronic convergence detail" >
     <i type="logical" name="LDIAG"> T  </i>
     <i type="logical" name="LSUBROT"> F  </i>
     <i name="WEIMIN">      0.00000000</i>
     <i name="EBREAK">      0.00000000</i>
     <i name="DEPER">      0.30000000</i>
     <i type="int" name="NRMM">     4</i>
     <i name="TIME">      0.40000000</i>
    </separator>
   </separator>
   <separator name="electronic mixer" >
    <i name="AMIX">      0.40000000</i>
    <i name="BMIX">      1.00000000</i>
    <i name="AMIN">      0.10000000</i>
    <i name="AMIX_MAG">      1.60000000</i>
    <i name="BMIX_MAG">      1.00000000</i>
    <separator name="electronic mixer details" >
     <i type="int" name="IMIX">     4</i>
     <i type="logical" name="MIXFIRST"> F  </i>
     <i type="int" name="MAXMIX">   -45</i>
     <i name="WC">    100.00000000</i>
     <i type="int" name="INIMIX">     1</i>
     <i type="int" name="MIXPRE">     1</i>
     <i type="int" name="MREMOVE">     5</i>
    </separator>
   </separator>
   <separator name="electronic dipolcorrection" >
    <i type="logical" name="LDIPOL"> F  </i>
    <i type="logical" name="LMONO"> F  </i>
    <i type="int" name="IDIPOL">     0</i>
    <i name="EPSILON">      1.00000000</i>
    <v name="DIPOL">   -100.00000000   -100.00000000   -100.00000000</v>
    <i name="EFIELD">      0.00000000</i>
   </separator>
  </separator>
  <separator name="grids" >
   <i type="int" name="NGX">    36</i>
   <i type="int" name="NGY">    36</i>
   <i type="int" name="NGZ">    40</i>
   <i type="int" name="NGXF">    72</i>
   <i type="int" name="NGYF">    72</i>
   <i type="int" name="NGZF">    80</i>
   <i type="logical" name="ADDGRID"> F  </i>
  </separator>
  <separator name="ionic" >
   <i type="int" name="NSW">     0</i>
   <i type="int" name="IBRION">    -1</i>
   <i type="int" name="MDALGO">     0</i>
   <i type="int" name="ISIF">     2</i>
   <i name="PSTRESS">      0.00000000</i>
   <i name="EDIFFG">      0.00000010</i>
   <i type="int" name="NFREE">     0</i>
   <i name="POTIM">      0.50000000</i>
   <i name="SMASS">     -3.00000000</i>
   <i name="SCALEE">      1.00000000</i>
  </separator>
  <separator name="ionic md" >
   <i name="TEBEG">      0.00010000</i>
   <i name="TEEND">      0.00010000</i>
   <i type="int" name="NBLOCK">     1</i>
   <i type="int" name="KBLOCK">     1</i>
   <i type="int" name="NPACO">   256</i>
   <i name="APACO">     10.00000000</i>
  </separator>
  <separator name="symmetry" >
   <i type="int" name="ISYM">     2</i>
   <i name="SYMPREC">      0.00001000</i>
  </separator>
  <separator name="dos" >
   <i type="int" name="LORBIT">     0</i>
   <v name="RWIGS">     -1.00000000     -1.00000000</v>
   <i type="int" name="NEDOS">   301</i>
   <i name="EMIN">     10.00000000</i>
   <i name="EMAX">    -10.00000000</i>
   <i name="EFERMI">      0.00000000</i>
  </separator>
  <separator name="writing" >
   <i type="int" name="NWRITE">     2</i>
   <i type="logical" name="LWAVE"> T  </i>
   <i type="logical" name="LDOWNSAMPLE"> F  </i>
   <i type="logical" name="LCHARG"> T  </i>
   <i type="logical" name="LPARD"> F  </i>
   <i type="logical" name="LVTOT"> F  </i>
   <i type="logical" name="LVHAR"> F  </i>
   <i type="logical" name="LELF"> F  </i>
   <i type="logical" name="LOPTICS"> F  </i>
   <v name="STM">      0.00000000      0.00000000      0.00000000      0.00000000      0.00000000      0.00000000      0.00000000</v>
  </separator>
  <separator name="performance" >
   <i type="int" name="NPAR">     1</i>
   <i type="int" name="NSIM">     4</i>
   <i type="int" name="NBLK">    -1</i>
   <i type="logical" name="LPLANE"> T  </i>
   <i type="logical" name="LSCALAPACK"> T  </i>
   <i type="logical" name="LSCAAWARE"> F  </i>
   <i type="logical" name="LSCALU"> F  </i>
   <i type="logical" name="LASYNC"> F  </i>
   <i type="logical" name="LORBITALREAL"> F  </i>
  </separator>
  <separator name="miscellaneous" >
   <i type="int" name="IDIOT">     3</i>
   <i type="int" name="PHON_NSTRUCT">    -1</i>
   <i type="logical" name="LMUSIC"> F  </i>
   <v name="POMASS">     28.08500000     16.00000000</v>
   <v name="DARWINR">      0.00000000      0.00000000</v>
   <v name="DARWINV">      1.00000000      1.00000000</v>
   <i type="logical" name="LCORR"> T  </i>
  </separator>
  <i type="logical" name="GGA_COMPAT"> T  </i>
  <i type="logical" name="LBERRY"> F  </i>
  <i type="int" name="ICORELEVEL">     0</i>
  <i type="logical" name="LDAU"> F  </i>
  <i type="int" name="I_CONSTRAINED_M">     0</i>
  <separator name="electronic exchange-correlation" >
   <i type="string" name="GGA">--</i>
   <i type="int" name="VOSKOWN">     0</i>
   <i type="logical" name="LHFCALC"> F  </i>
   <i type="string" name="PRECFOCK"></i>
   <i type="logical" name="LSYMGRAD"> F  </i>
   <i type="logical" name="LHFONE"> F  </i>
   <i type="logical" name="LRHFCALC"> F  </i>
   <i type="logical" name="LTHOMAS"> F  </i>
   <i type="logical" name="LMODELHF"> F  </i>
   <i type="logical" name="LFOCKACE"> F  </i>
   <i name="ENCUT4O">     -1.00000000</i>
   <i type="int" name="EXXOEP">     0</i>
   <i type="int" name="FOURORBIT">     0</i>
   <i name="AEXX">      0.00000000</i>
   <i name="HFALPHA">      0.00000000</i>
   <i name="MCALPHA">      0.00000000</i>
   <i name="ALDAX">      1.00000000</i>
   <i name="AGGAX">      1.00000000</i>
   <i name="ALDAC">      1.00000000</i>
   <i name="AGGAC">      1.00000000</i>
   <i type="int" name="NKREDX">     1</i>
   <i type="int" name="NKREDY">     1</i>
   <i type="int" name="NKREDZ">     1</i>
   <i type="logical" name="SHIFTRED"> F  </i>
   <i type="logical" name="ODDONLY"> F  </i>
   <i type="logical" name="EVENONLY"> F  </i>
   <i type="int" name="LMAXFOCK">     0</i>
   <i type="int" name="NMAXFOCKAE">     0</i>
   <i type="logical" name="LFOCKAEDFT"> F  </i>
   <i name="HFSCREEN">      0.00000000</i>
   <i name="HFSCREENC">      0.00000000</i>
   <i type="int" name="NBANDSGWLOW">     0</i>
  </separator>
  <separator name="vdW DFT" >
   <i type="logical" name="LUSE_VDW"> F  </i>
   <i type="int" name="IVDW_NL">     1</i>
   <i type="logical" name="LSPIN_VDW"> F  </i>
   <i name="Zab_VDW">     -0.84910000</i>
   <i name="PARAM1">      0.12340000</i>
   <i name="PARAM2">      1.00000000</i>
   <i name="PARAM3">      0.00000000</i>
  </separator>
  <separator name="model GW" >
   <i type="int" name="MODEL_GW">     0</i>
   <i name="MODEL_EPS0">      7.36922501</i>
   <i name="MODEL_ALPHA">      1.00000000</i>
  </separator>
  <separator name="linear response parameters" >
   <i type="logical" name="LEPSILON"> T  </i>
   <i type="logical" name="LRPA"> F  </i>
   <i type="logical" name="LNABLA"> F  </i>
   <i type="logical" name="LVEL"> F  </i>
   <i name="CSHIFT">      0.10000000</i>
   <i name="OMEGAMAX">     -1.00000000</i>
   <i name="DEG_THRESHOLD">      0.00200000</i>
   <i name="RTIME">     -0.10000000</i>
   <i name="WPLASMAI">      0.00000000</i>
   <v name="DFIELD">      0.00000000      0.00000000      0.00000000</v>
   <v name="WPLASMA">      0.00000000      0.00000000      0.00000000      0.00000000      0.00000000      0.00000000      0.00000000      0.00000000      0.00000000</v>
  </separator>
  <separator name="orbital magnetization" >
   <i type="logical" name="NUCIND"> F  </i>
   <v name="MAGPOS">      0.00000000      0.00000000      0.00000000</v>
   <i type="logical" name="LNICSALL"> T  </i>
   <i type="logical" name="ORBITALMAG"> F  </i>
   <i type="logical" name="LMAGBLOCH"> F  </i>
   <i type="logical" name="LCHIMAG"> F  </i>
   <i type="logical" name="LGAUGE"> T  </i>
   <i type="int" name="MAGATOM">     0</i>
   <v name="MAGDIPOL">      0.00000000      0.00000000      0.00000000</v>
   <v name="AVECCONST">      0.00000000      0.00000000      0.00000000</v>
  </separator>
  <separator name="response functions" >
   <i type="logical" name="LALL_IN_ONE"> F  </i>
   <i type="int" name="IALL_IN_ONE">    -1</i>
   <i type="int" name="NBANDS_WAVE">    -1</i>
   <i type="logical" name="LFINITE_TEMPERATURE"> F  </i>
   <i type="logical" name="LADDER"> F  </i>
   <i type="logical" name="LRPAFORCE"> F  </i>
   <i type="logical" name="LFXC"> F  </i>
   <i type="logical" name="LHARTREE"> T  </i>
   <i type="int" name="IBSE">     0</i>
   <v type="int" name="KPOINT">    -1     0     0     0</v>
   <i type="logical" name="LTCTC"> F  </i>
   <i type="logical" name="LTCTE"> F  </i>
   <i type="logical" name="LTETE"> F  </i>
   <i type="logical" name="LTRIPLET"> F  </i>
   <i type="logical" name="LFXCEPS"> F  </i>
   <i type="logical" name="LFXHEG"> F  </i>
   <i type="int" name="NATURALO">     2</i>
   <i type="logical" name="LHOLEGF"> F  </i>
   <i type="logical" name="L2ORDER"> F  </i>
   <i type="logical" name="LDMP1"> F  </i>
   <i type="logical" name="LMP2LT"> F  </i>
   <i type="logical" name="LSMP2LT"> F  </i>
   <i type="logical" name="LGWLF"> F  </i>
   <i name="ENCUTGW">     -1.60000002</i>
   <i name="ENCUTGWSOFT">     -1.60000002</i>
   <i name="ENCUTLF">     -1.00000000</i>
   <i type="logical" name="LESF_SPLINES"> F  </i>
   <i type="int" name="LMAXMP2">    -1</i>
   <i name="SCISSOR">      0.00000000</i>
   <i type="int" name="NOMEGA">     0</i>
   <i type="int" name="NOMEGAR">     0</i>
   <i type="int" name="NBANDSGW">    -1</i>
   <i type="int" name="NBANDSO">    -1</i>
   <i type="int" name="NBANDSV">    -1</i>
   <i type="int" name="NELMGW">     1</i>
   <i type="int" name="NELMHF">     1</i>
   <i type="int" name="DIM">     3</i>
   <i type="int" name="IESPILON">     4</i>
   <i type="int" name="ANTIRES">     0</i>
   <i name="OMEGAMAX">    -30.00000000</i>
   <i name="OMEGAMIN">    -30.00000000</i>
   <i name="OMEGATL">   -200.00000000</i>
   <i type="int" name="OMEGAGRID">     0</i>
   <i name="CSHIFT">     -0.10000000</i>
   <i type="logical" name="LSELFENERGY"> F  </i>
   <i type="logical" name="LSPECTRAL"> F  </i>
   <i type="logical" name="LSPECTRALGW"> F  </i>
   <i type="logical" name="LSINGLES"> F  </i>
   <i type="logical" name="LFERMIGW"> F  </i>
   <i type="logical" name="ODDONLYGW"> F  </i>
   <i type="logical" name="EVENONLYGW"> F  </i>
   <i type="int" name="NKREDLFX">     1</i>
   <i type="int" name="NKREDLFY">     1</i>
   <i type="int" name="NKREDLFZ">     1</i>
   <i type="int" name="MAXMEM">  2800</i>
   <i type="int" name="TELESCOPE">     0</i>
   <i type="int" name="NTAUPAR">    -1</i>
   <i type="int" name="NOMEGAPAR">    -1</i>
   <i name="DAMP_NEWTON">      0.80000001</i>
   <i name="LAMBDA">      1.00000000</i>
  </separator>
  <separator name="External order field" >
   <i name="OFIELD_KAPPA">      0.00000000</i>
   <v name="OFIELD_K">      0.00000000      0.00000000      0.00000000</v>
   <i name="OFIELD_Q6_NEAR">      0.00000000</i>
   <i name="OFIELD_Q6_FAR">      0.00000000</i>
   <i name="OFIELD_A">      0.00000000</i>
  </separator>
  <separator name="optional k-points parameters" >
   <i type="int" name="KPOINTS_OPT_MODE">     1</i>
   <i type="logical" name="LKPOINTS_OPT"> F  </i>
  </separator>
 </parameters>
 <atominfo>
  <atoms>       9 </atoms>
  <types>       2 </types>
  <array name="atoms" >
   <dimension dim="1">ion</dimension>
   <field type="string">element</field>
   <field type="int">atomtype</field>
   <set>
    <rc><c>Si</c><c>   1</c></rc>
    <rc><c>Si</c><c>   1</c></rc>
    <rc><c>Si</c><c>   1</c></rc>
    <rc><c>O </c><c>   2</c></rc>
    <rc><c>O </c><c>   2</c></rc>
    <rc><c>O </c><c>   2</c></rc>
    <rc><c>O </c><c>   2</c></rc>
    <rc><c>O </c><c>   2</c></rc>
    <rc><c>O </c><c>   2</c></rc>
   </set>
  </array>
  <array name="atomtypes" >
   <dimension dim="1">type</dimension>
   <field type="int">atomspertype</field>
   <field type="string">element</field>
   <field>mass</field>
   <field>valence</field>
   <field type="string">pseudopotential</field>
   <set>
    <rc><c>   3</c><c>Si</c><c>     28.08500000</c><c>      4.00000000</c><c>  PAW_PBE Si 05Jan2001                  </c></rc>
    <rc><c>   6</c><c>O </c><c>     16.00000000</c><c>      6.00000000</c><c>  PAW_PBE O 08Apr2002                   </c></rc>
   </set>
  </array>
 </atominfo>
 <structure name="initialpos" >
  <crystal>
   <varray name="basis" >
    <v>       4.87342988       0.00000000       0.00000000 </v>
    <v>      -2.43671494       4.22051408       0.00000000 </v>
    <v>       0.00000000       0.00000000       5.37418982 </v>
   </varray>
   <i name="volume">    110.53837516 </i>
   <varray name="rec_basis" >
    <v>       0.20519429       0.11846898      -0.00000000 </v>
    <v>       0.00000000       0.23693796       0.00000000 </v>
    <v>       0.00000000      -0.00000000       0.18607456 </v>
   </varray>
  </crystal>
  <varray name="positions" >
   <v>       0.46457701       0.00000000       0.66666667 </v>
   <v>       0.00000000       0.46457701       0.33333333 </v>
   <v>       0.53542299       0.53542299       0.00000000 </v>
   <v>       0.13562164       0.72413619       0.55429239 </v>
   <v>       0.27586381       0.41148546       0.22095906 </v>
   <v>       0.58851454       0.86437836       0.88762572 </v>
   <v>       0.41148546       0.27586381       0.77904094 </v>
   <v>       0.86437836       0.58851454       0.11237428 </v>
   <v>       0.72413619       0.13562164       0.44570761 </v>
  </varray>
 </structure>
 <calculation>
  <scstep>
   <time name="dav">    0.48    0.48</time>
   <time name="total">    0.52    0.50</time>
   <energy>
    <i name="alphaZ">     71.30271804 </i>
    <i name="ewald">  -1930.21696556 </i>
    <i name="hartreedc">   -909.37415632 </i>
    <i name="XCdc">    141.70946853 </i>
    <i name="pawpsdc">   2343.66826019 </i>
    <i name="pawaedc">  -2301.68043871 </i>
    <i name="eentropy">     -0.00332421 </i>
    <i name="bandstr">    -13.59738920 </i>
    <i name="atom">   2903.33737771 </i>
    <i name="e_fr_energy">    305.14555047 </i>
    <i name="e_wo_entrp">    305.14887468 </i>
    <i name="e_0_energy">    305.14721257 </i>
   </energy>
  </scstep>
  <scstep>
   <time name="dav">    0.44    0.44</time>
   <time name="total">    0.44    0.44</time>
   <energy>
    <i name="e_fr_energy">    -60.80610403 </i>
    <i name="e_wo_entrp">    -60.80610403 </i>
    <i name="e_0_energy">    -60.80610403 </i>
   </energy>
  </scstep>
  <scstep>
   <time name="dav">    0.41    0.41</time>
   <time name="total">    0.41    0.41</time>
   <energy>
    <i name="e_fr_energy">    -80.16541939 </i>
    <i name="e_wo_entrp">    -80.16541939 </i>
    <i name="e_0_energy">    -80.16541939 </i>
   </energy>
  </scstep>
  <scstep>
   <time name="dav">    0.41    0.41</time>
   <time name="total">    0.41    0.41</time>
   <energy>
    <i name="e_fr_energy">    -80.41818285 </i>
    <i name="e_wo_entrp">    -80.41818285 </i>
    <i name="e_0_energy">    -80.41818285 </i>
   </energy>
  </scstep>
  <scstep>
   <time name="dav">    0.40    0.40</time>
   <time name="total">    0.49    0.46</time>
   <energy>
    <i name="e_fr_energy">    -80.42317941 </i>
    <i name="e_wo_entrp">    -80.42317941 </i>
    <i name="e_0_energy">    -80.42317941 </i>
   </energy>
  </scstep>
  <scstep>
   <time name="diag">    0.05    0.04</time>
   <time name="diis">    0.46    0.46</time>
   <time name="orth">    0.00    0.00</time>
   <time name="total">    0.63    0.58</time>
   <energy>
    <i name="e_fr_energy">    -70.67357088 </i>
    <i name="e_wo_entrp">    -70.67357088 </i>
    <i name="e_0_energy">    -70.67357088 </i>
   </energy>
  </scstep>
  <scstep>
   <time name="diag">    0.05    0.04</time>
   <time name="diis">    0.51    0.51</time>
   <time name="orth">    0.00    0.00</time>
   <time name="total">    0.67    0.62</time>
   <energy>
    <i name="e_fr_energy">    -70.97634382 </i>
    <i name="e_wo_entrp">    -70.97634382 </i>
    <i name="e_0_energy">    -70.97634382 </i>
   </energy>
  </scstep>
  <scstep>
   <time name="diag">    0.05    0.04</time>
   <time name="diis">    0.51    0.51</time>
   <time name="orth">    0.00    0.00</time>
   <time name="total">    0.67    0.62</time>
   <energy>
    <i name="e_fr_energy">    -70.96819409 </i>
    <i name="e_wo_entrp">    -70.96819409 </i>
    <i name="e_0_energy">    -70.96819409 </i>
   </energy>
  </scstep>
  <scstep>
   <time name="diag">    0.05    0.04</time>
   <time name="diis">    0.52    0.52</time>
   <time name="orth">    0.00    0.00</time>
   <time name="total">    0.68    0.63</time>
   <energy>
    <i name="e_fr_energy">    -70.98727660 </i>
    <i name="e_wo_entrp">    -70.98727660 </i>
    <i name="e_0_energy">    -70.98727660 </i>
   </energy>
  </scstep>
  <scstep>
   <time name="diag">    0.05    0.04</time>
   <time name="diis">    0.52    0.52</time>
   <time name="orth">    0.00    0.00</time>
   <time name="total">    0.68    0.63</time>
   <energy>
    <i name="e_fr_energy">    -70.99258898 </i>
    <i name="e_wo_entrp">    -70.99258898 </i>
    <i name="e_0_energy">    -70.99258898 </i>
   </energy>
  </scstep>
  <scstep>
   <time name="diag">    0.05    0.04</time>
   <time name="diis">    0.52    0.52</time>
   <time name="orth">    0.00    0.00</time>
   <time name="total">    0.68    0.63</time>
   <energy>
    <i name="e_fr_energy">    -70.98871030 </i>
    <i name="e_wo_entrp">    -70.98871030 </i>
    <i name="e_0_energy">    -70.98871030 </i>
   </energy>
  </scstep>
  <scstep>
   <time name="diag">    0.05    0.04</time>
   <time name="diis">    0.52    0.52</time>
   <time name="orth">    0.00    0.00</time>
   <time name="total">    0.68    0.63</time>
   <energy>
    <i name="e_fr_energy">    -70.98930852 </i>
    <i name="e_wo_entrp">    -70.98930852 </i>
    <i name="e_0_energy">    -70.98930852 </i>
   </energy>
  </scstep>
  <scstep>
   <time name="diag">    0.05    0.04</time>
   <time name="diis">    0.55    0.56</time>
   <time name="orth">    0.00    0.00</time>
   <time name="total">    0.99    0.71</time>
   <energy>
    <i name="e_fr_energy">    -70.98907171 </i>
    <i name="e_wo_entrp">    -70.98907171 </i>
    <i name="e_0_energy">    -70.98907171 </i>
   </energy>
  </scstep>
  <scstep>
   <time name="diag">    0.05    0.04</time>
   <time name="diis">    0.53    0.53</time>
   <time name="orth">    0.00    0.00</time>
   <time name="total">    0.70    0.65</time>
   <energy>
    <i name="e_fr_energy">    -70.98903324 </i>
    <i name="e_wo_entrp">    -70.98903324 </i>
    <i name="e_0_energy">    -70.98903324 </i>
   </energy>
  </scstep>
  <scstep>
   <time name="diag">    0.05    0.04</time>
   <time name="diis">    0.57    0.57</time>
   <time name="orth">    0.00    0.00</time>
   <time name="total">    0.74    0.68</time>
   <energy>
    <i name="e_fr_energy">    -70.98902982 </i>
    <i name="e_wo_entrp">    -70.98902982 </i>
    <i name="e_0_energy">    -70.98902982 </i>
   </energy>
  </scstep>
  <scstep>
   <time name="diag">    0.05    0.04</time>
   <time name="diis">    0.53    0.53</time>
   <time name="orth">    0.00    0.00</time>
   <time name="total">    0.69    0.64</time>
   <energy>
    <i name="e_fr_energy">    -70.98902860 </i>
    <i name="e_wo_entrp">    -70.98902860 </i>
    <i name="e_0_energy">    -70.98902860 </i>
   </energy>
  </scstep>
  <scstep>
   <time name="diag">    0.05    0.04</time>
   <time name="diis">    0.53    0.53</time>
   <time name="orth">    0.00    0.00</time>
   <time name="total">    0.69    0.64</time>
   <energy>
    <i name="e_fr_energy">    -70.98902881 </i>
    <i name="e_wo_entrp">    -70.98902881 </i>
    <i name="e_0_energy">    -70.98902881 </i>
   </energy>
  </scstep>
  <scstep>
   <time name="diag">    0.05    0.04</time>
   <time name="diis">    0.57    0.57</time>
   <time name="orth">    0.00    0.00</time>
   <time name="total">    0.74    0.69</time>
   <energy>
    <i name="e_fr_energy">    -70.98902899 </i>
    <i name="e_wo_entrp">    -70.98902899 </i>
    <i name="e_0_energy">    -70.98902899 </i>
   </energy>
  </scstep>
  <scstep>
   <time name="diag">    0.05    0.04</time>
   <time name="diis">    0.52    0.52</time>
   <time name="orth">    0.00    0.00</time>
   <time name="total">    0.69    0.64</time>
   <energy>
    <i name="e_fr_energy">    -70.98902897 </i>
    <i name="e_wo_entrp">    -70.98902897 </i>
    <i name="e_0_energy">    -70.98902897 </i>
   </energy>
  </scstep>
  <scstep>
   <time name="diag">    0.05    0.04</time>
   <time name="diis">    0.52    0.52</time>
   <time name="orth">    0.00    0.00</time>
   <time name="total">    0.69    0.64</time>
   <energy>
    <i name="e_fr_energy">    -70.98902900 </i>
    <i name="e_wo_entrp">    -70.98902900 </i>
    <i name="e_0_energy">    -70.98902900 </i>
   </energy>
  </scstep>
  <scstep>
   <time name="diag">    0.05    0.04</time>
   <time name="diis">    0.36    0.36</time>
   <time name="orth">    0.00    0.00</time>
   <time name="total">    0.52    0.47</time>
   <energy>
    <i name="e_fr_energy">    -70.98902898 </i>
    <i name="e_wo_entrp">    -70.98902898 </i>
    <i name="e_0_energy">    -70.98902898 </i>
   </energy>
  </scstep>
  <scstep>
   <time name="diag">    0.05    0.04</time>
   <time name="diis">    0.35    0.35</time>
   <time name="orth">    0.00    0.00</time>
   <time name="total">    0.43    0.40</time>
   <energy>
    <i name="alphaZ">     71.30271804 </i>
    <i name="ewald">  -1930.21696556 </i>
    <i name="hartreedc">  -1040.53442932 </i>
    <i name="XCdc">    150.68522475 </i>
    <i name="pawpsdc">   8045.73497021 </i>
    <i name="pawaedc">  -8006.11271418 </i>
    <i name="eentropy">     -0.00000000 </i>
    <i name="bandstr">   -265.18521064 </i>
    <i name="atom">   2903.33737771 </i>
    <i name="e_fr_energy">    -70.98902898 </i>
    <i name="e_wo_entrp">    -70.98902898 </i>
    <i name="e_0_energy">    -70.98902898 </i>
   </energy>
  </scstep>
  <structure>
   <crystal>
    <varray name="basis" >
     <v>       4.87342988       0.00000000       0.00000000 </v>
     <v>      -2.43671494       4.22051408       0.00000000 </v>
     <v>       0.00000000       0.00000000       5.37418982 </v>
    </varray>
    <i name="volume">    110.53837516 </i>
    <varray name="rec_basis" >
     <v>       0.20519429       0.11846898      -0.00000000 </v>
     <v>       0.00000000       0.23693796       0.00000000 </v>
     <v>       0.00000000      -0.00000000       0.18607456 </v>
    </varray>
   </crystal>
   <varray name="positions" >
    <v>       0.46457701       0.00000000       0.66666667 </v>
    <v>       0.00000000       0.46457701       0.33333333 </v>
    <v>       0.53542299       0.53542299       0.00000000 </v>
    <v>       0.13562164       0.72413619       0.55429239 </v>
    <v>       0.27586381       0.41148546       0.22095906 </v>
    <v>       0.58851454       0.86437836       0.88762572 </v>
    <v>       0.41148546       0.27586381       0.77904094 </v>
    <v>       0.86437836       0.58851454       0.11237428 </v>
    <v>       0.72413619       0.13562164       0.44570761 </v>
   </varray>
  </structure>
  <varray name="forces" >
   <v>       0.08308931      -0.00000000       0.00000000 </v>
   <v>      -0.04154465       0.07195745       0.00000000 </v>
   <v>      -0.04154465      -0.07195745       0.00000000 </v>
   <v>      -0.29514638      -0.04761317       0.11353573 </v>
   <v>       0.18880741      -0.23179767       0.11353573 </v>
   <v>       0.10633897       0.27941085       0.11353573 </v>
   <v>      -0.29514638       0.04761317      -0.11353573 </v>
   <v>       0.18880741       0.23179767      -0.11353573 </v>
   <v>       0.10633897      -0.27941085      -0.11353573 </v>
  </varray>
  <varray name="stress" >
   <v>      72.92743150       0.00000000       0.00000000 </v>
   <v>       0.00000000      72.92743150      -0.00000000 </v>
   <v>       0.00000000      -0.00000000      71.80551783 </v>
  </varray>
  <energy>
   <i name="e_fr_energy">    -70.98902898 </i>
   <i name="e_wo_entrp">    -70.98902898 </i>
   <i name="e_0_energy">    -70.98902898 </i>
  </energy>
  <scstep>
   <time name="total">    6.62    1.41</time>
   <energy>
    <i name="e_fr_energy">   -182.68011451 </i>
    <i name="e_wo_entrp">   -182.68011451 </i>
    <i name="e_0_energy">   -182.68011451 </i>
   </energy>
  </scstep>
  <scstep>
   <time name="total">    6.43    1.23</time>
   <energy>
    <i name="e_fr_energy">   -172.55367573 </i>
    <i name="e_wo_entrp">   -172.55367573 </i>
    <i name="e_0_energy">   -172.55367573 </i>
   </energy>
  </scstep>
  <scstep>
   <time name="total">    7.14    1.34</time>
   <energy>
    <i name="e_fr_energy">   -172.69984527 </i>
    <i name="e_wo_entrp">   -172.69984527 </i>
    <i name="e_0_energy">   -172.69984527 </i>
   </energy>
  </scstep>
  <scstep>
   <time name="total">    0.50    0.50</time>
   <energy>
    <i name="e_fr_energy">   -172.70722436 </i>
    <i name="e_wo_entrp">   -172.70722436 </i>
    <i name="e_0_energy">   -172.70722436 </i>
   </energy>
  </scstep>
  <scstep>
   <time name="total">    0.50    0.50</time>
   <energy>
    <i name="e_fr_energy">   -172.70739579 </i>
    <i name="e_wo_entrp">   -172.70739579 </i>
    <i name="e_0_energy">   -172.70739579 </i>
   </energy>
  </scstep>
  <scstep>
   <time name="total">    0.51    0.51</time>
   <energy>
    <i name="e_fr_energy">   -172.70740658 </i>
    <i name="e_wo_entrp">   -172.70740658 </i>
    <i name="e_0_energy">   -172.70740658 </i>
   </energy>
  </scstep>
  <scstep>
   <time name="total">    0.52    0.52</time>
   <energy>
    <i name="e_fr_energy">   -172.70740627 </i>
    <i name="e_wo_entrp">   -172.70740627 </i>
    <i name="e_0_energy">   -172.70740627 </i>
   </energy>
  </scstep>
  <scstep>
   <time name="total">    0.52    0.52</time>
   <energy>
    <i name="e_fr_energy">   -172.70740377 </i>
    <i name="e_wo_entrp">   -172.70740377 </i>
    <i name="e_0_energy">   -172.70740377 </i>
   </energy>
  </scstep>
  <scstep>
   <time name="total">    0.52    0.52</time>
   <energy>
    <i name="e_fr_energy">   -172.70740316 </i>
    <i name="e_wo_entrp">   -172.70740316 </i>
    <i name="e_0_energy">   -172.70740316 </i>
   </energy>
  </scstep>
  <scstep>
   <time name="total">    0.52    0.52</time>
   <energy>
    <i name="e_fr_energy">   -172.70740359 </i>
    <i name="e_wo_entrp">   -172.70740359 </i>
    <i name="e_0_energy">   -172.70740359 </i>
   </energy>
  </scstep>
  <scstep>
   <time name="total">    6.59    1.40</time>
   <energy>
    <i name="e_fr_energy">   -182.08458900 </i>
    <i name="e_wo_entrp">   -182.08458900 </i>
    <i name="e_0_energy">   -182.08458900 </i>
   </energy>
  </scstep>
  <scstep>
   <time name="total">    6.43    1.22</time>
   <energy>
    <i name="e_fr_energy">   -172.66885873 </i>
    <i name="e_wo_entrp">   -172.66885873 </i>
    <i name="e_0_energy">   -172.66885873 </i>
   </energy>
  </scstep>
  <scstep>
   <time name="total">    6.44    1.23</time>
   <energy>
    <i name="e_fr_energy">   -172.81194219 </i>
    <i name="e_wo_entrp">   -172.81194219 </i>
    <i name="e_0_energy">   -172.81194219 </i>
   </energy>
  </scstep>
  <scstep>
   <time name="total">    0.50    0.50</time>
   <energy>
    <i name="e_fr_energy">   -172.81925269 </i>
    <i name="e_wo_entrp">   -172.81925269 </i>
    <i name="e_0_energy">   -172.81925269 </i>
   </energy>
  </scstep>
  <scstep>
   <time name="total">    0.50    0.50</time>
   <energy>
    <i name="e_fr_energy">   -172.81944143 </i>
    <i name="e_wo_entrp">   -172.81944143 </i>
    <i name="e_0_energy">   -172.81944143 </i>
   </energy>
  </scstep>
  <scstep>
   <time name="total">    0.51    0.51</time>
   <energy>
    <i name="e_fr_energy">   -172.81945635 </i>
    <i name="e_wo_entrp">   -172.81945635 </i>
    <i name="e_0_energy">   -172.81945635 </i>
   </energy>
  </scstep>
  <scstep>
   <time name="total">    0.52    0.52</time>
   <energy>
    <i name="e_fr_energy">   -172.81945819 </i>
    <i name="e_wo_entrp">   -172.81945819 </i>
    <i name="e_0_energy">   -172.81945819 </i>
   </energy>
  </scstep>
  <scstep>
   <time name="total">    0.52    0.52</time>
   <energy>
    <i name="e_fr_energy">   -172.81945938 </i>
    <i name="e_wo_entrp">   -172.81945938 </i>
    <i name="e_0_energy">   -172.81945938 </i>
   </energy>
  </scstep>
  <scstep>
   <time name="total">    0.52    0.52</time>
   <energy>
    <i name="e_fr_energy">   -172.81945830 </i>
    <i name="e_wo_entrp">   -172.81945830 </i>
    <i name="e_0_energy">   -172.81945830 </i>
   </energy>
  </scstep>
  <scstep>
   <time name="total">    0.52    0.52</time>
   <energy>
    <i name="e_fr_energy">   -172.81945846 </i>
    <i name="e_wo_entrp">   -172.81945846 </i>
    <i name="e_0_energy">   -172.81945846 </i>
   </energy>
  </scstep>
  <scstep>
   <time name="total">    6.69    1.42</time>
   <energy>
    <i name="e_fr_energy">   -182.23053440 </i>
    <i name="e_wo_entrp">   -182.23053440 </i>
    <i name="e_0_energy">   -182.23053440 </i>
   </energy>
  </scstep>
  <scstep>
   <time name="total">    6.44    1.22</time>
   <energy>
    <i name="e_fr_energy">   -172.55385184 </i>
    <i name="e_wo_entrp">   -172.55385184 </i>
    <i name="e_0_energy">   -172.55385184 </i>
   </energy>
  </scstep>
  <scstep>
   <time name="total">    6.51    1.24</time>
   <energy>
    <i name="e_fr_energy">   -172.70662043 </i>
    <i name="e_wo_entrp">   -172.70662043 </i>
    <i name="e_0_energy">   -172.70662043 </i>
   </energy>
  </scstep>
  <scstep>
   <time name="total">    0.50    0.49</time>
   <energy>
    <i name="e_fr_energy">   -172.71397578 </i>
    <i name="e_wo_entrp">   -172.71397578 </i>
    <i name="e_0_energy">   -172.71397578 </i>
   </energy>
  </scstep>
  <scstep>
   <time name="total">    0.50    0.50</time>
   <energy>
    <i name="e_fr_energy">   -172.71413507 </i>
    <i name="e_wo_entrp">   -172.71413507 </i>
    <i name="e_0_energy">   -172.71413507 </i>
   </energy>
  </scstep>
  <scstep>
   <time name="total">    0.50    0.50</time>
   <energy>
    <i name="e_fr_energy">   -172.71413906 </i>
    <i name="e_wo_entrp">   -172.71413906 </i>
    <i name="e_0_energy">   -172.71413906 </i>
   </energy>
  </scstep>
  <scstep>
   <time name="total">    0.50    0.50</time>
   <energy>
    <i name="e_fr_energy">   -172.71413964 </i>
    <i name="e_wo_entrp">   -172.71413964 </i>
    <i name="e_0_energy">   -172.71413964 </i>
   </energy>
  </scstep>
  <scstep>
   <time name="total">    0.50    0.50</time>
   <energy>
    <i name="e_fr_energy">   -172.71413891 </i>
    <i name="e_wo_entrp">   -172.71413891 </i>
    <i name="e_0_energy">   -172.71413891 </i>
   </energy>
  </scstep>
  <scstep>
   <time name="total">    0.50    0.49</time>
   <energy>
    <i name="e_fr_energy">   -172.71413265 </i>
    <i name="e_wo_entrp">   -172.71413265 </i>
    <i name="e_0_energy">   -172.71413265 </i>
   </energy>
  </scstep>
  <scstep>
   <time name="total">    0.50    0.50</time>
   <energy>
    <i name="e_fr_energy">   -172.71413334 </i>
    <i name="e_wo_entrp">   -172.71413334 </i>
    <i name="e_0_energy">   -172.71413334 </i>
   </energy>
  </scstep>
  <scstep>
   <time name="total">    1.21    0.73</time>
   <energy>
    <i name="e_fr_energy">     -0.48215392 </i>
    <i name="e_wo_entrp">     -0.48215392 </i>
    <i name="e_0_energy">     -0.48215392 </i>
   </energy>
  </scstep>
  <scstep>
   <time name="total">    1.18    0.71</time>
   <energy>
    <i name="e_fr_energy">     -0.48457227 </i>
    <i name="e_wo_entrp">     -0.48457227 </i>
    <i name="e_0_energy">     -0.48457227 </i>
   </energy>
  </scstep>
  <scstep>
   <time name="total">    1.18    0.72</time>
   <energy>
    <i name="e_fr_energy">     -0.48475474 </i>
    <i name="e_wo_entrp">     -0.48475474 </i>
    <i name="e_0_energy">     -0.48475474 </i>
   </energy>
  </scstep>
  <scstep>
   <time name="total">    1.19    0.72</time>
   <energy>
    <i name="e_fr_energy">     -0.48476336 </i>
    <i name="e_wo_entrp">     -0.48476336 </i>
    <i name="e_0_energy">     -0.48476336 </i>
   </energy>
  </scstep>
  <scstep>
   <time name="total">    1.19    0.72</time>
   <energy>
    <i name="e_fr_energy">     -0.48476366 </i>
    <i name="e_wo_entrp">     -0.48476366 </i>
    <i name="e_0_energy">     -0.48476366 </i>
   </energy>
  </scstep>
  <scstep>
   <time name="total">    1.18    0.70</time>
   <energy>
    <i name="e_fr_energy">     -0.48476368 </i>
    <i name="e_wo_entrp">     -0.48476368 </i>
    <i name="e_0_energy">     -0.48476368 </i>
   </energy>
  </scstep>
  <scstep>
   <time name="total">    1.14    0.67</time>
   <energy>
    <i name="e_fr_energy">     -0.48476369 </i>
    <i name="e_wo_entrp">     -0.48476369 </i>
    <i name="e_0_energy">     -0.48476369 </i>
   </energy>
  </scstep>
  <scstep>
   <time name="total">    1.13    0.65</time>
   <energy>
    <i name="e_fr_energy">     -0.48476369 </i>
    <i name="e_wo_entrp">     -0.48476369 </i>
    <i name="e_0_energy">     -0.48476369 </i>
   </energy>
  </scstep>
  <scstep>
   <time name="total">    1.12    0.65</time>
   <energy>
    <i name="e_fr_energy">     -0.48476369 </i>
    <i name="e_wo_entrp">     -0.48476369 </i>
    <i name="e_0_energy">     -0.48476369 </i>
   </energy>
  </scstep>
  <scstep>
   <time name="total">    1.20    0.72</time>
   <energy>
    <i name="e_fr_energy">     -0.48388287 </i>
    <i name="e_wo_entrp">     -0.48388287 </i>
    <i name="e_0_energy">     -0.48388287 </i>
   </energy>
  </scstep>
  <scstep>
   <time name="total">    1.19    0.72</time>
   <energy>
    <i name="e_fr_energy">     -0.48608046 </i>
    <i name="e_wo_entrp">     -0.48608046 </i>
    <i name="e_0_energy">     -0.48608046 </i>
   </energy>
  </scstep>
  <scstep>
   <time name="total">    1.18    0.72</time>
   <energy>
    <i name="e_fr_energy">     -0.48627292 </i>
    <i name="e_wo_entrp">     -0.48627292 </i>
    <i name="e_0_energy">     -0.48627292 </i>
   </energy>
  </scstep>
  <scstep>
   <time name="total">    1.20    0.73</time>
   <energy>
    <i name="e_fr_energy">     -0.48628168 </i>
    <i name="e_wo_entrp">     -0.48628168 </i>
    <i name="e_0_energy">     -0.48628168 </i>
   </energy>
  </scstep>
  <scstep>
   <time name="total">    1.20    0.73</time>
   <energy>
    <i name="e_fr_energy">     -0.48628199 </i>
    <i name="e_wo_entrp">     -0.48628199 </i>
    <i name="e_0_energy">     -0.48628199 </i>
   </energy>
  </scstep>
  <scstep>
   <time name="total">    1.16    0.69</time>
   <energy>
    <i name="e_fr_energy">     -0.48628201 </i>
    <i name="e_wo_entrp">     -0.48628201 </i>
    <i name="e_0_energy">     -0.48628201 </i>
   </energy>
  </scstep>
  <scstep>
   <time name="total">    1.13    0.66</time>
   <energy>
    <i name="e_fr_energy">     -0.48628201 </i>
    <i name="e_wo_entrp">     -0.48628201 </i>
    <i name="e_0_energy">     -0.48628201 </i>
   </energy>
  </scstep>
  <scstep>
   <time name="total">    1.12    0.65</time>
   <energy>
    <i name="e_fr_energy">     -0.48628201 </i>
    <i name="e_wo_entrp">     -0.48628201 </i>
    <i name="e_0_energy">     -0.48628201 </i>
   </energy>
  </scstep>
  <scstep>
   <time name="total">    1.11    0.64</time>
   <energy>
    <i name="e_fr_energy">     -0.48628201 </i>
    <i name="e_wo_entrp">     -0.48628201 </i>
    <i name="e_0_energy">     -0.48628201 </i>
   </energy>
  </scstep>
  <scstep>
   <time name="total">    1.18    0.72</time>
   <energy>
    <i name="e_fr_energy">     -0.48771973 </i>
    <i name="e_wo_entrp">     -0.48771973 </i>
    <i name="e_0_energy">     -0.48771973 </i>
   </energy>
  </scstep>
  <scstep>
   <time name="total">    1.17    0.71</time>
   <energy>
    <i name="e_fr_energy">     -0.48977660 </i>
    <i name="e_wo_entrp">     -0.48977660 </i>
    <i name="e_0_energy">     -0.48977660 </i>
   </energy>
  </scstep>
  <scstep>
   <time name="total">    1.18    0.71</time>
   <energy>
    <i name="e_fr_energy">     -0.48996764 </i>
    <i name="e_wo_entrp">     -0.48996764 </i>
    <i name="e_0_energy">     -0.48996764 </i>
   </energy>
  </scstep>
  <scstep>
   <time name="total">    1.18    0.72</time>
   <energy>
    <i name="e_fr_energy">     -0.48997656 </i>
    <i name="e_wo_entrp">     -0.48997656 </i>
    <i name="e_0_energy">     -0.48997656 </i>
   </energy>
  </scstep>
  <scstep>
   <time name="total">    1.18    0.72</time>
   <energy>
    <i name="e_fr_energy">     -0.48997687 </i>
    <i name="e_wo_entrp">     -0.48997687 </i>
    <i name="e_0_energy">     -0.48997687 </i>
   </energy>
  </scstep>
  <scstep>
   <time name="total">    1.15    0.69</time>
   <energy>
    <i name="e_fr_energy">     -0.48997689 </i>
    <i name="e_wo_entrp">     -0.48997689 </i>
    <i name="e_0_energy">     -0.48997689 </i>
   </energy>
  </scstep>
  <scstep>
   <time name="total">    1.12    0.65</time>
   <energy>
    <i name="e_fr_energy">     -0.48997689 </i>
    <i name="e_wo_entrp">     -0.48997689 </i>
    <i name="e_0_energy">     -0.48997689 </i>
   </energy>
  </scstep>
  <scstep>
   <time name="total">    1.11    0.64</time>
   <energy>
    <i name="e_fr_energy">     -0.48997689 </i>
    <i name="e_wo_entrp">     -0.48997689 </i>
    <i name="e_0_energy">     -0.48997689 </i>
   </energy>
  </scstep>
  <scstep>
   <time name="total">    1.10    0.63</time>
   <energy>
    <i name="e_fr_energy">     -0.48997689 </i>
    <i name="e_wo_entrp">     -0.48997689 </i>
    <i name="e_0_energy">     -0.48997689 </i>
   </energy>
  </scstep>
  <scstep>
   <time name="total">    1.09    0.63</time>
   <energy>
    <i name="e_fr_energy">     -0.48997689 </i>
    <i name="e_wo_entrp">     -0.48997689 </i>
    <i name="e_0_energy">     -0.48997689 </i>
   </energy>
  </scstep>
  <varray name="dielectric_ipa" >
   <v>       2.58961403       0.00000000       0.00000000 </v>
   <v>       0.00000000       2.58961403       0.00000000 </v>
   <v>       0.00000000       0.00000000       2.60419778 </v>
  </varray>
  <kpoints>
   <generation param="Gamma">
    <v type="int" name="divisions">       4        4        4 </v>
    <v name="usershift">      0.00000000       0.00000000       0.00000000 </v>
    <v name="genvec1">      0.25000000       0.00000000       0.00000000 </v>
    <v name="genvec2">      0.00000000       0.25000000       0.00000000 </v>
    <v name="genvec3">      0.00000000       0.00000000       0.25000000 </v>
    <v name="shift">      0.00000000       0.00000000       0.00000000 </v>
   </generation>
   <varray name="kpointlist" >
    <v>       0.00000000       0.00000000       0.00000000 </v>
    <v>       0.25000000       0.00000000       0.00000000 </v>
    <v>       0.00000000       0.25000000       0.00000000 </v>
    <v>       0.50000000       0.00000000       0.00000000 </v>
    <v>       0.00000000       0.50000000       0.00000000 </v>
    <v>       0.25000000       0.25000000       0.00000000 </v>
    <v>       0.50000000       0.25000000       0.00000000 </v>
    <v>       0.00000000       0.00000000       0.25000000 </v>
    <v>       0.25000000       0.00000000       0.25000000 </v>
    <v>       0.00000000       0.25000000       0.25000000 </v>
    <v>      -0.25000000       0.00000000       0.25000000 </v>
    <v>       0.00000000      -0.25000000       0.25000000 </v>
    <v>       0.50000000       0.00000000       0.25000000 </v>
    <v>       0.00000000       0.50000000       0.25000000 </v>
    <v>       0.25000000       0.25000000       0.25000000 </v>
    <v>       0.50000000       0.25000000       0.25000000 </v>
    <v>      -0.25000000      -0.25000000       0.25000000 </v>
    <v>       0.00000000       0.00000000       0.50000000 </v>
    <v>       0.25000000       0.00000000       0.50000000 </v>
    <v>       0.00000000       0.25000000       0.50000000 </v>
    <v>       0.50000000       0.00000000       0.50000000 </v>
    <v>       0.00000000       0.50000000       0.50000000 </v>
    <v>       0.25000000       0.25000000       0.50000000 </v>
    <v>       0.50000000       0.25000000       0.50000000 </v>
   </varray>
   <varray name="weights" >
    <v>       0.01562500 </v>
    <v>       0.06250000 </v>
    <v>       0.03125000 </v>
    <v>       0.03125000 </v>
    <v>       0.01562500 </v>
    <v>       0.06250000 </v>
    <v>       0.03125000 </v>
    <v>       0.03125000 </v>
    <v>       0.06250000 </v>
    <v>       0.03125000 </v>
    <v>       0.06250000 </v>
    <v>       0.03125000 </v>
    <v>       0.06250000 </v>
    <v>       0.03125000 </v>
    <v>       0.06250000 </v>
    <v>       0.06250000 </v>
    <v>       0.06250000 </v>
    <v>       0.01562500 </v>
    <v>       0.06250000 </v>
    <v>       0.03125000 </v>
    <v>       0.03125000 </v>
    <v>       0.01562500 </v>
    <v>       0.06250000 </v>
    <v>       0.03125000 </v>
   </varray>
  </kpoints>
  <scstep>
   <time name="total">    1.81    1.25</time>
   <energy>
    <i name="e_fr_energy">     -0.48308237 </i>
    <i name="e_wo_entrp">     -0.48308237 </i>
    <i name="e_0_energy">     -0.48308237 </i>
   </energy>
  </scstep>
  <scstep>
   <time name="total">    1.75    1.27</time>
   <energy>
    <i name="e_fr_energy">     -0.48532694 </i>
    <i name="e_wo_entrp">     -0.48532694 </i>
    <i name="e_0_energy">     -0.48532694 </i>
   </energy>
  </scstep>
  <scstep>
   <time name="total">    1.77    1.28</time>
   <energy>
    <i name="e_fr_energy">     -0.46499146 </i>
    <i name="e_wo_entrp">     -0.46499146 </i>
    <i name="e_0_energy">     -0.46499146 </i>
   </energy>
  </scstep>
  <scstep>
   <time name="total">    1.76    1.27</time>
   <energy>
    <i name="e_fr_energy">     -0.47606686 </i>
    <i name="e_wo_entrp">     -0.47606686 </i>
    <i name="e_0_energy">     -0.47606686 </i>
   </energy>
  </scstep>
  <scstep>
   <time name="total">    1.75    1.26</time>
   <energy>
    <i name="e_fr_energy">     -0.49383061 </i>
    <i name="e_wo_entrp">     -0.49383061 </i>
    <i name="e_0_energy">     -0.49383061 </i>
   </energy>
  </scstep>
  <scstep>
   <time name="total">    1.78    1.26</time>
   <energy>
    <i name="e_fr_energy">     -0.49673929 </i>
    <i name="e_wo_entrp">     -0.49673929 </i>
    <i name="e_0_energy">     -0.49673929 </i>
   </energy>
  </scstep>
  <scstep>
   <time name="total">    1.76    1.28</time>
   <energy>
    <i name="e_fr_energy">     -0.49699118 </i>
    <i name="e_wo_entrp">     -0.49699118 </i>
    <i name="e_0_energy">     -0.49699118 </i>
   </energy>
  </scstep>
  <scstep>
   <time name="total">    2.13    1.33</time>
   <energy>
    <i name="e_fr_energy">     -0.49722168 </i>
    <i name="e_wo_entrp">     -0.49722168 </i>
    <i name="e_0_energy">     -0.49722168 </i>
   </energy>
  </scstep>
  <scstep>
   <time name="total">    1.79    1.28</time>
   <energy>
    <i name="e_fr_energy">     -0.49728221 </i>
    <i name="e_wo_entrp">     -0.49728221 </i>
    <i name="e_0_energy">     -0.49728221 </i>
   </energy>
  </scstep>
  <scstep>
   <time name="total">    1.77    1.29</time>
   <energy>
    <i name="e_fr_energy">     -0.49727839 </i>
    <i name="e_wo_entrp">     -0.49727839 </i>
    <i name="e_0_energy">     -0.49727839 </i>
   </energy>
  </scstep>
  <scstep>
   <time name="total">    1.77    1.28</time>
   <energy>
    <i name="e_fr_energy">     -0.49727940 </i>
    <i name="e_wo_entrp">     -0.49727940 </i>
    <i name="e_0_energy">     -0.49727940 </i>
   </energy>
  </scstep>
  <scstep>
   <time name="total">    1.73    1.25</time>
   <energy>
    <i name="e_fr_energy">     -0.49727941 </i>
    <i name="e_wo_entrp">     -0.49727941 </i>
    <i name="e_0_energy">     -0.49727941 </i>
   </energy>
  </scstep>
  <scstep>
   <time name="total">    1.74    1.25</time>
   <energy>
    <i name="e_fr_energy">     -0.49727936 </i>
    <i name="e_wo_entrp">     -0.49727936 </i>
    <i name="e_0_energy">     -0.49727936 </i>
   </energy>
  </scstep>
  <scstep>
   <time name="total">    1.75    1.26</time>
   <energy>
    <i name="e_fr_energy">     -0.49727922 </i>
    <i name="e_wo_entrp">     -0.49727922 </i>
    <i name="e_0_energy">     -0.49727922 </i>
   </energy>
  </scstep>
  <kpoints>
   <generation param="Gamma">
    <v type="int" name="divisions">       4        4        4 </v>
    <v name="usershift">      0.00000000       0.00000000       0.00000000 </v>
    <v name="genvec1">      0.25000000       0.00000000       0.00000000 </v>
    <v name="genvec2">      0.00000000       0.25000000       0.00000000 </v>
    <v name="genvec3">      0.00000000       0.00000000       0.25000000 </v>
    <v name="shift">      0.00000000       0.00000000       0.00000000 </v>
   </generation>
   <varray name="kpointlist" >
    <v>       0.00000000       0.00000000       0.00000000 </v>
    <v>       0.25000000       0.00000000       0.00000000 </v>
    <v>       0.00000000       0.25000000       0.00000000 </v>
    <v>      -0.25000000       0.25000000       0.00000000 </v>
    <v>       0.50000000       0.00000000       0.00000000 </v>
    <v>       0.00000000       0.50000000       0.00000000 </v>
    <v>       0.50000000       0.50000000       0.00000000 </v>
    <v>       0.25000000       0.25000000       0.00000000 </v>
    <v>      -0.25000000       0.50000000       0.00000000 </v>
    <v>       0.50000000       0.25000000       0.00000000 </v>
    <v>       0.00000000       0.00000000       0.25000000 </v>
    <v>       0.25000000       0.00000000       0.25000000 </v>
    <v>       0.00000000       0.25000000       0.25000000 </v>
    <v>      -0.25000000       0.25000000       0.25000000 </v>
    <v>      -0.25000000       0.00000000       0.25000000 </v>
    <v>       0.00000000      -0.25000000       0.25000000 </v>
    <v>       0.25000000      -0.25000000       0.25000000 </v>
    <v>       0.50000000       0.00000000       0.25000000 </v>
    <v>       0.00000000       0.50000000       0.25000000 </v>
    <v>       0.50000000       0.50000000       0.25000000 </v>
    <v>       0.25000000       0.25000000       0.25000000 </v>
    <v>      -0.25000000       0.50000000       0.25000000 </v>
    <v>       0.50000000       0.25000000       0.25000000 </v>
    <v>      -0.25000000      -0.25000000       0.25000000 </v>
    <v>       0.25000000       0.50000000       0.25000000 </v>
    <v>       0.50000000      -0.25000000       0.25000000 </v>
    <v>       0.00000000       0.00000000       0.50000000 </v>
    <v>       0.25000000       0.00000000       0.50000000 </v>
    <v>       0.00000000       0.25000000       0.50000000 </v>
    <v>      -0.25000000       0.25000000       0.50000000 </v>
    <v>       0.50000000       0.00000000       0.50000000 </v>
    <v>       0.00000000       0.50000000       0.50000000 </v>
    <v>       0.50000000       0.50000000       0.50000000 </v>
    <v>       0.25000000       0.25000000       0.50000000 </v>
    <v>      -0.25000000       0.50000000       0.50000000 </v>
    <v>       0.50000000       0.25000000       0.50000000 </v>
   </varray>
   <varray name="weights" >
    <v>       0.01562500 </v>
    <v>       0.03125000 </v>
    <v>       0.03125000 </v>
    <v>       0.03125000 </v>
    <v>       0.01562500 </v>
    <v>       0.01562500 </v>
    <v>       0.01562500 </v>
    <v>       0.03125000 </v>
    <v>       0.03125000 </v>
    <v>       0.03125000 </v>
    <v>       0.03125000 </v>
    <v>       0.03125000 </v>
    <v>       0.03125000 </v>
    <v>       0.03125000 </v>
    <v>       0.03125000 </v>
    <v>       0.03125000 </v>
    <v>       0.03125000 </v>
    <v>       0.03125000 </v>
    <v>       0.03125000 </v>
    <v>       0.03125000 </v>
    <v>       0.03125000 </v>
    <v>       0.03125000 </v>
    <v>       0.03125000 </v>
    <v>       0.03125000 </v>
    <v>       0.03125000 </v>
    <v>       0.03125000 </v>
    <v>       0.01562500 </v>
    <v>       0.03125000 </v>
    <v>       0.03125000 </v>
    <v>       0.03125000 </v>
    <v>       0.01562500 </v>
    <v>       0.01562500 </v>
    <v>       0.01562500 </v>
    <v>       0.03125000 </v>
    <v>       0.03125000 </v>
    <v>       0.03125000 </v>
   </varray>
  </kpoints>
  <scstep>
   <time name="total">    2.23    1.76</time>
   <energy>
    <i name="e_fr_energy">     -0.48312446 </i>
    <i name="e_wo_entrp">     -0.48312446 </i>
    <i name="e_0_energy">     -0.48312446 </i>
   </energy>
  </scstep>
  <scstep>
   <time name="total">    2.32    1.84</time>
   <energy>
    <i name="e_fr_energy">     -0.48532517 </i>
    <i name="e_wo_entrp">     -0.48532517 </i>
    <i name="e_0_energy">     -0.48532517 </i>
   </energy>
  </scstep>
  <scstep>
   <time name="total">    2.34    1.85</time>
   <energy>
    <i name="e_fr_energy">     -0.46512654 </i>
    <i name="e_wo_entrp">     -0.46512654 </i>
    <i name="e_0_energy">     -0.46512654 </i>
   </energy>
  </scstep>
  <scstep>
   <time name="total">    2.33    1.84</time>
   <energy>
    <i name="e_fr_energy">     -0.47597570 </i>
    <i name="e_wo_entrp">     -0.47597570 </i>
    <i name="e_0_energy">     -0.47597570 </i>
   </energy>
  </scstep>
  <scstep>
   <time name="total">    2.32    1.83</time>
   <energy>
    <i name="e_fr_energy">     -0.49370897 </i>
    <i name="e_wo_entrp">     -0.49370897 </i>
    <i name="e_0_energy">     -0.49370897 </i>
   </energy>
  </scstep>
  <scstep>
   <time name="total">    2.30    1.81</time>
   <energy>
    <i name="e_fr_energy">     -0.49662502 </i>
    <i name="e_wo_entrp">     -0.49662502 </i>
    <i name="e_0_energy">     -0.49662502 </i>
   </energy>
  </scstep>
  <scstep>
   <time name="total">    2.34    1.85</time>
   <energy>
    <i name="e_fr_energy">     -0.49686881 </i>
    <i name="e_wo_entrp">     -0.49686881 </i>
    <i name="e_0_energy">     -0.49686881 </i>
   </energy>
  </scstep>
  <scstep>
   <time name="total">    2.34    1.86</time>
   <energy>
    <i name="e_fr_energy">     -0.49709935 </i>
    <i name="e_wo_entrp">     -0.49709935 </i>
    <i name="e_0_energy">     -0.49709935 </i>
   </energy>
  </scstep>
  <scstep>
   <time name="total">    2.42    1.87</time>
   <energy>
    <i name="e_fr_energy">     -0.49716421 </i>
    <i name="e_wo_entrp">     -0.49716421 </i>
    <i name="e_0_energy">     -0.49716421 </i>
   </energy>
  </scstep>
  <scstep>
   <time name="total">    2.35    1.87</time>
   <energy>
    <i name="e_fr_energy">     -0.49715943 </i>
    <i name="e_wo_entrp">     -0.49715943 </i>
    <i name="e_0_energy">     -0.49715943 </i>
   </energy>
  </scstep>
  <scstep>
   <time name="total">    2.36    1.87</time>
   <energy>
    <i name="e_fr_energy">     -0.49716042 </i>
    <i name="e_wo_entrp">     -0.49716042 </i>
    <i name="e_0_energy">     -0.49716042 </i>
   </energy>
  </scstep>
  <scstep>
   <time name="total">    2.30    1.81</time>
   <energy>
    <i name="e_fr_energy">     -0.49716043 </i>
    <i name="e_wo_entrp">     -0.49716043 </i>
    <i name="e_0_energy">     -0.49716043 </i>
   </energy>
  </scstep>
  <scstep>
   <time name="total">    2.31    1.82</time>
   <energy>
    <i name="e_fr_energy">     -0.49716051 </i>
    <i name="e_wo_entrp">     -0.49716051 </i>
    <i name="e_0_energy">     -0.49716051 </i>
   </energy>
  </scstep>
  <scstep>
   <time name="total">    2.33    1.84</time>
   <energy>
    <i name="e_fr_energy">     -0.49716040 </i>
    <i name="e_wo_entrp">     -0.49716040 </i>
    <i name="e_0_energy">     -0.49716040 </i>
   </energy>
  </scstep>
  <kpoints>
   <generation param="Gamma">
    <v type="int" name="divisions">       4        4        4 </v>
    <v name="usershift">      0.00000000       0.00000000       0.00000000 </v>
    <v name="genvec1">      0.25000000       0.00000000       0.00000000 </v>
    <v name="genvec2">      0.00000000       0.25000000       0.00000000 </v>
    <v name="genvec3">      0.00000000       0.00000000       0.25000000 </v>
    <v name="shift">      0.00000000       0.00000000       0.00000000 </v>
   </generation>
   <varray name="kpointlist" >
    <v>       0.00000000       0.00000000       0.00000000 </v>
    <v>       0.25000000       0.00000000       0.00000000 </v>
    <v>       0.50000000       0.00000000       0.00000000 </v>
    <v>       0.25000000       0.25000000       0.00000000 </v>
    <v>       0.00000000       0.00000000       0.25000000 </v>
    <v>       0.25000000       0.00000000       0.25000000 </v>
    <v>       0.00000000       0.25000000       0.25000000 </v>
    <v>       0.50000000       0.00000000       0.25000000 </v>
    <v>       0.25000000       0.25000000       0.25000000 </v>
    <v>      -0.25000000       0.50000000       0.25000000 </v>
    <v>       0.00000000       0.00000000       0.50000000 </v>
    <v>       0.25000000       0.00000000       0.50000000 </v>
    <v>       0.50000000       0.00000000       0.50000000 </v>
    <v>       0.25000000       0.25000000       0.50000000 </v>
   </varray>
   <varray name="weights" >
    <v>       0.01562500 </v>
    <v>       0.09375000 </v>
    <v>       0.04687500 </v>
    <v>       0.09375000 </v>
    <v>       0.03125000 </v>
    <v>       0.09375000 </v>
    <v>       0.09375000 </v>
    <v>       0.09375000 </v>
    <v>       0.09375000 </v>
    <v>       0.09375000 </v>
    <v>       0.01562500 </v>
    <v>       0.09375000 </v>
    <v>       0.04687500 </v>
    <v>       0.09375000 </v>
   </varray>
  </kpoints>
  <scstep>
   <time name="total">    1.23    0.76</time>
   <energy>
    <i name="e_fr_energy">     -0.48771974 </i>
    <i name="e_wo_entrp">     -0.48771974 </i>
    <i name="e_0_energy">     -0.48771974 </i>
   </energy>
  </scstep>
  <scstep>
   <time name="total">    1.27    0.79</time>
   <energy>
    <i name="e_fr_energy">     -0.48977659 </i>
    <i name="e_wo_entrp">     -0.48977659 </i>
    <i name="e_0_energy">     -0.48977659 </i>
   </energy>
  </scstep>
  <scstep>
   <time name="total">    1.27    0.79</time>
   <energy>
    <i name="e_fr_energy">     -0.47454020 </i>
    <i name="e_wo_entrp">     -0.47454020 </i>
    <i name="e_0_energy">     -0.47454020 </i>
   </energy>
  </scstep>
  <scstep>
   <time name="total">    1.27    0.79</time>
   <energy>
    <i name="e_fr_energy">     -0.48773520 </i>
    <i name="e_wo_entrp">     -0.48773520 </i>
    <i name="e_0_energy">     -0.48773520 </i>
   </energy>
  </scstep>
  <scstep>
   <time name="total">    1.27    0.79</time>
   <energy>
    <i name="e_fr_energy">     -0.50399320 </i>
    <i name="e_wo_entrp">     -0.50399320 </i>
    <i name="e_0_energy">     -0.50399320 </i>
   </energy>
  </scstep>
  <scstep>
   <time name="total">    1.26    0.77</time>
   <energy>
    <i name="e_fr_energy">     -0.50683092 </i>
    <i name="e_wo_entrp">     -0.50683092 </i>
    <i name="e_0_energy">     -0.50683092 </i>
   </energy>
  </scstep>
  <scstep>
   <time name="total">    1.28    0.79</time>
   <energy>
    <i name="e_fr_energy">     -0.50707505 </i>
    <i name="e_wo_entrp">     -0.50707505 </i>
    <i name="e_0_energy">     -0.50707505 </i>
   </energy>
  </scstep>
  <scstep>
   <time name="total">    1.28    0.79</time>
   <energy>
    <i name="e_fr_energy">     -0.50734062 </i>
    <i name="e_wo_entrp">     -0.50734062 </i>
    <i name="e_0_energy">     -0.50734062 </i>
   </energy>
  </scstep>
  <scstep>
   <time name="total">    1.39    0.81</time>
   <energy>
    <i name="e_fr_energy">     -0.50736344 </i>
    <i name="e_wo_entrp">     -0.50736344 </i>
    <i name="e_0_energy">     -0.50736344 </i>
   </energy>
  </scstep>
  <scstep>
   <time name="total">    1.29    0.80</time>
   <energy>
    <i name="e_fr_energy">     -0.50736491 </i>
    <i name="e_wo_entrp">     -0.50736491 </i>
    <i name="e_0_energy">     -0.50736491 </i>
   </energy>
  </scstep>
  <scstep>
   <time name="total">    1.29    0.81</time>
   <energy>
    <i name="e_fr_energy">     -0.50736378 </i>
    <i name="e_wo_entrp">     -0.50736378 </i>
    <i name="e_0_energy">     -0.50736378 </i>
   </energy>
  </scstep>
  <scstep>
   <time name="total">    1.26    0.77</time>
   <energy>
    <i name="e_fr_energy">     -0.50736394 </i>
    <i name="e_wo_entrp">     -0.50736394 </i>
    <i name="e_0_energy">     -0.50736394 </i>
   </energy>
  </scstep>
  <scstep>
   <time name="total">    1.27    0.79</time>
   <energy>
    <i name="e_fr_energy">     -0.50736391 </i>
    <i name="e_wo_entrp">     -0.50736391 </i>
    <i name="e_0_energy">     -0.50736391 </i>
   </energy>
  </scstep>
  <scstep>
   <time name="total">    1.25    0.76</time>
   <energy>
    <i name="e_fr_energy">     -0.50736395 </i>
    <i name="e_wo_entrp">     -0.50736395 </i>
    <i name="e_0_energy">     -0.50736395 </i>
   </energy>
  </scstep>
  <kpoints>
   <generation param="Gamma">
    <v type="int" name="divisions">       4        4        4 </v>
    <v name="usershift">      0.00000000       0.00000000       0.00000000 </v>
    <v name="genvec1">      0.25000000       0.00000000       0.00000000 </v>
    <v name="genvec2">      0.00000000       0.25000000       0.00000000 </v>
    <v name="genvec3">      0.00000000       0.00000000       0.25000000 </v>
    <v name="shift">      0.00000000       0.00000000       0.00000000 </v>
   </generation>
   <varray name="kpointlist" >
    <v>       0.00000000       0.00000000       0.00000000 </v>
    <v>       0.25000000       0.00000000       0.00000000 </v>
    <v>       0.50000000       0.00000000       0.00000000 </v>
    <v>       0.25000000       0.25000000       0.00000000 </v>
    <v>       0.00000000       0.00000000       0.25000000 </v>
    <v>       0.25000000       0.00000000       0.25000000 </v>
    <v>       0.00000000       0.25000000       0.25000000 </v>
    <v>       0.50000000       0.00000000       0.25000000 </v>
    <v>       0.25000000       0.25000000       0.25000000 </v>
    <v>       0.00000000       0.00000000       0.50000000 </v>
    <v>       0.25000000       0.00000000       0.50000000 </v>
    <v>       0.50000000       0.00000000       0.50000000 </v>
    <v>       0.25000000       0.25000000       0.50000000 </v>
   </varray>
   <varray name="weights" >
    <v>       0.01562500 </v>
    <v>       0.09375000 </v>
    <v>       0.04687500 </v>
    <v>       0.09375000 </v>
    <v>       0.03125000 </v>
    <v>       0.09375000 </v>
    <v>       0.09375000 </v>
    <v>       0.09375000 </v>
    <v>       0.18750000 </v>
    <v>       0.01562500 </v>
    <v>       0.09375000 </v>
    <v>       0.04687500 </v>
    <v>       0.09375000 </v>
   </varray>
  </kpoints>
  <varray name="dielectric_dft" >
   <v>       2.48069695       0.00000000      -0.00000000 </v>
   <v>       0.00000000       2.48069695       0.00000000 </v>
   <v>       0.00000000       0.00000000       2.51366695 </v>
  </varray>
  <varray name="epsilon" >
   <v>       2.48069695       0.00000000      -0.00000000 </v>
   <v>       0.00000000       2.48069695       0.00000000 </v>
   <v>       0.00000000       0.00000000       2.51366695 </v>
  </varray>
  <kpoints>
   <generation param="Gamma">
    <v type="int" name="divisions">       4        4        4 </v>
    <v name="usershift">      0.00000000       0.00000000       0.00000000 </v>
    <v name="genvec1">      0.25000000       0.00000000       0.00000000 </v>
    <v name="genvec2">      0.00000000       0.25000000       0.00000000 </v>
    <v name="genvec3">      0.00000000       0.00000000       0.25000000 </v>
    <v name="shift">      0.00000000       0.00000000       0.00000000 </v>
   </generation>
   <varray name="kpointlist" >
    <v>       0.00000000       0.00000000       0.00000000 </v>
    <v>       0.25000000       0.00000000       0.00000000 </v>
    <v>       0.50000000       0.00000000       0.00000000 </v>
    <v>       0.25000000       0.25000000       0.00000000 </v>
    <v>       0.00000000       0.00000000       0.25000000 </v>
    <v>       0.25000000       0.00000000       0.25000000 </v>
    <v>       0.00000000       0.25000000       0.25000000 </v>
    <v>       0.50000000       0.00000000       0.25000000 </v>
    <v>       0.25000000       0.25000000       0.25000000 </v>
    <v>       0.00000000       0.00000000       0.50000000 </v>
    <v>       0.25000000       0.00000000       0.50000000 </v>
    <v>       0.50000000       0.00000000       0.50000000 </v>
    <v>       0.25000000       0.25000000       0.50000000 </v>
   </varray>
   <varray name="weights" >
    <v>       0.01562500 </v>
    <v>       0.09375000 </v>
    <v>       0.04687500 </v>
    <v>       0.09375000 </v>
    <v>       0.03125000 </v>
    <v>       0.09375000 </v>
    <v>       0.09375000 </v>
    <v>       0.09375000 </v>
    <v>       0.18750000 </v>
    <v>       0.01562500 </v>
    <v>       0.09375000 </v>
    <v>       0.04687500 </v>
    <v>       0.09375000 </v>
   </varray>
  </kpoints>
  <array name="born_charges" >
   <dimension dim="1">ion</dimension>
   <set>
    <v>       2.98057511       0.00000000      -0.00000000 </v>
    <v>       0.00000000       3.62078904      -0.32162598 </v>
    <v>       0.00000000       0.27747692       3.42500266 </v>
   </set>
   <set>
    <v>       3.46073556       0.27722076       0.27853627 </v>
    <v>       0.27722076       3.14062860       0.16081299 </v>
    <v>      -0.24030206      -0.13873846       3.42500266 </v>
   </set>
   <set>
    <v>       3.46073556      -0.27722076      -0.27853627 </v>
    <v>      -0.27722076       3.14062860       0.16081299 </v>
    <v>       0.24030206      -0.13873846       3.42500266 </v>
   </set>
   <set>
    <v>      -1.31111265      -0.49294188      -0.30960536 </v>
    <v>      -0.43632697      -1.98956942      -0.67845739 </v>
    <v>      -0.24388613      -0.72205490      -1.71250133 </v>
   </set>
   <set>
    <v>      -2.22234045      -0.08977065       0.74236402 </v>
    <v>      -0.03315573      -1.07834163       0.07110259 </v>
    <v>       0.74726095       0.14981587      -1.71250133 </v>
   </set>
   <set>
    <v>      -1.41757002       0.49779015      -0.43275866 </v>
    <v>       0.55440507      -1.88311206       0.60735480 </v>
    <v>      -0.50337483       0.57223904      -1.71250133 </v>
   </set>
   <set>
    <v>      -1.31111265       0.49294188       0.30960536 </v>
    <v>       0.43632697      -1.98956942      -0.67845739 </v>
    <v>       0.24388613      -0.72205490      -1.71250133 </v>
   </set>
   <set>
    <v>      -2.22234045       0.08977065      -0.74236402 </v>
    <v>       0.03315573      -1.07834163       0.07110259 </v>
    <v>      -0.74726095       0.14981587      -1.71250133 </v>
   </set>
   <set>
    <v>      -1.41757002      -0.49779015       0.43275866 </v>
    <v>      -0.55440507      -1.88311206       0.60735480 </v>
    <v>       0.50337483       0.57223904      -1.71250133 </v>
   </set>
  </array>
  <time name="totalsc">  211.56  121.24</time>
  <eigenvalues>
   <array>
    <dimension dim="1">band</dimension>
    <dimension dim="2">kpoint</dimension>
    <dimension dim="3">spin</dimension>
    <field>eigene</field>
    <field>occ</field>
    <set>
     <set comment="spin 1">
      <set comment="kpoint 1">
       <r>  -18.1718    1.0000 </r>
       <r>  -16.6197    1.0000 </r>
       <r>  -16.6197    1.0000 </r>
       <r>  -15.9522    1.0000 </r>
       <r>  -15.9426    1.0000 </r>
       <r>  -15.9426    1.0000 </r>
       <r>   -6.8781    1.0000 </r>
       <r>   -6.8781    1.0000 </r>
       <r>   -4.1430    1.0000 </r>
       <r>   -4.0651    1.0000 </r>
       <r>   -3.9130    1.0000 </r>
       <r>   -3.9130    1.0000 </r>
       <r>   -1.6849    1.0000 </r>
       <r>   -1.6849    1.0000 </r>
       <r>   -1.3754    1.0000 </r>
       <r>   -1.1500    1.0000 </r>
       <r>   -0.1543    1.0000 </r>
       <r>   -0.1543    1.0000 </r>
       <r>   -0.0986    1.0000 </r>
       <r>    0.2622    1.0000 </r>
       <r>    0.2622    1.0000 </r>
       <r>    0.4574    1.0000 </r>
       <r>    1.0014    1.0000 </r>
       <r>    1.0014    1.0000 </r>
       <r>    7.3234    0.0000 </r>
       <r>   10.6056    0.0000 </r>
       <r>   10.6056    0.0000 </r>
       <r>   11.2408    0.0000 </r>
       <r>   11.2408    0.0000 </r>
      </set>
      <set comment="kpoint 2">
       <r>  -17.9878    1.0000 </r>
       <r>  -16.8195    1.0000 </r>
       <r>  -16.5935    1.0000 </r>
       <r>  -16.0189    1.0000 </r>
       <r>  -15.9758    1.0000 </r>
       <r>  -15.9427    1.0000 </r>
       <r>   -6.9563    1.0000 </r>
       <r>   -6.5088    1.0000 </r>
       <r>   -4.2191    1.0000 </r>
       <r>   -4.1522    1.0000 </r>
       <r>   -4.0329    1.0000 </r>
       <r>   -3.6196    1.0000 </r>
       <r>   -1.8726    1.0000 </r>
       <r>   -1.5561    1.0000 </r>
       <r>   -1.3481    1.0000 </r>
       <r>   -0.8964    1.0000 </r>
       <r>   -0.6969    1.0000 </r>
       <r>   -0.2390    1.0000 </r>
       <r>   -0.1602    1.0000 </r>
       <r>    0.1802    1.0000 </r>
       <r>    0.2760    1.0000 </r>
       <r>    0.4218    1.0000 </r>
       <r>    1.0525    1.0000 </r>
       <r>    1.1398    1.0000 </r>
       <r>    8.2327    0.0000 </r>
       <r>   10.6687    0.0000 </r>
       <r>   10.7181    0.0000 </r>
       <r>   11.2086    0.0000 </r>
       <r>   11.4847    0.0000 </r>
      </set>
      <set comment="kpoint 3">
       <r>  -17.6648    1.0000 </r>
       <r>  -17.1820    1.0000 </r>
       <r>  -16.5648    1.0000 </r>
       <r>  -16.0448    1.0000 </r>
       <r>  -16.0006    1.0000 </r>
       <r>  -15.9686    1.0000 </r>
       <r>   -7.0301    1.0000 </r>
       <r>   -6.0444    1.0000 </r>
       <r>   -4.5568    1.0000 </r>
       <r>   -4.0939    1.0000 </r>
       <r>   -4.0898    1.0000 </r>
       <r>   -3.2822    1.0000 </r>
       <r>   -1.8239    1.0000 </r>
       <r>   -1.6224    1.0000 </r>
       <r>   -1.4345    1.0000 </r>
       <r>   -1.0018    1.0000 </r>
       <r>   -0.7928    1.0000 </r>
       <r>   -0.4790    1.0000 </r>
       <r>   -0.2888    1.0000 </r>
       <r>    0.1966    1.0000 </r>
       <r>    0.2828    1.0000 </r>
       <r>    0.5591    1.0000 </r>
       <r>    1.0158    1.0000 </r>
       <r>    1.2401    1.0000 </r>
       <r>    9.6346    0.0000 </r>
       <r>   10.3701    0.0000 </r>
       <r>   10.9662    0.0000 </r>
       <r>   10.9881    0.0000 </r>
       <r>   11.9971    0.0000 </r>
      </set>
      <set comment="kpoint 4">
       <r>  -17.6753    1.0000 </r>
       <r>  -17.1514    1.0000 </r>
       <r>  -16.5958    1.0000 </r>
       <r>  -16.0401    1.0000 </r>
       <r>  -15.9985    1.0000 </r>
       <r>  -15.9650    1.0000 </r>
       <r>   -7.0585    1.0000 </r>
       <r>   -5.9061    1.0000 </r>
       <r>   -4.8506    1.0000 </r>
       <r>   -4.0721    1.0000 </r>
       <r>   -3.9318    1.0000 </r>
       <r>   -3.2907    1.0000 </r>
       <r>   -1.7832    1.0000 </r>
       <r>   -1.6280    1.0000 </r>
       <r>   -1.4648    1.0000 </r>
       <r>   -0.8979    1.0000 </r>
       <r>   -0.8481    1.0000 </r>
       <r>   -0.4280    1.0000 </r>
       <r>   -0.2439    1.0000 </r>
       <r>   -0.0078    1.0000 </r>
       <r>    0.2533    1.0000 </r>
       <r>    0.6681    1.0000 </r>
       <r>    0.9800    1.0000 </r>
       <r>    1.2627    1.0000 </r>
       <r>    9.4756    0.0000 </r>
       <r>   10.7347    0.0000 </r>
       <r>   10.7709    0.0000 </r>
       <r>   11.4405    0.0000 </r>
       <r>   11.5791    0.0000 </r>
      </set>
      <set comment="kpoint 5">
       <r>  -18.0465    1.0000 </r>
       <r>  -17.1798    1.0000 </r>
       <r>  -16.1689    1.0000 </r>
       <r>  -15.9559    1.0000 </r>
       <r>  -15.9541    1.0000 </r>
       <r>  -15.9229    1.0000 </r>
       <r>   -7.6518    1.0000 </r>
       <r>   -5.8658    1.0000 </r>
       <r>   -4.3652    1.0000 </r>
       <r>   -4.1832    1.0000 </r>
       <r>   -4.1313    1.0000 </r>
       <r>   -3.5544    1.0000 </r>
       <r>   -1.7660    1.0000 </r>
       <r>   -1.4388    1.0000 </r>
       <r>   -1.3095    1.0000 </r>
       <r>   -0.9466    1.0000 </r>
       <r>   -0.4241    1.0000 </r>
       <r>   -0.2909    1.0000 </r>
       <r>   -0.1647    1.0000 </r>
       <r>   -0.1626    1.0000 </r>
       <r>    0.1768    1.0000 </r>
       <r>    0.6290    1.0000 </r>
       <r>    1.0926    1.0000 </r>
       <r>    1.1773    1.0000 </r>
       <r>    7.9362    0.0000 </r>
       <r>   10.4178    0.0000 </r>
       <r>   10.6317    0.0000 </r>
       <r>   10.6451    0.0000 </r>
       <r>   11.6516    0.0000 </r>
      </set>
      <set comment="kpoint 6">
       <r>  -17.8793    1.0000 </r>
       <r>  -17.1560    1.0000 </r>
       <r>  -16.3548    1.0000 </r>
       <r>  -16.0145    1.0000 </r>
       <r>  -15.9921    1.0000 </r>
       <r>  -15.9408    1.0000 </r>
       <r>   -7.3278    1.0000 </r>
       <r>   -5.9241    1.0000 </r>
       <r>   -4.6322    1.0000 </r>
       <r>   -4.0966    1.0000 </r>
       <r>   -3.8301    1.0000 </r>
       <r>   -3.6556    1.0000 </r>
       <r>   -1.9388    1.0000 </r>
       <r>   -1.4325    1.0000 </r>
       <r>   -1.3044    1.0000 </r>
       <r>   -0.9653    1.0000 </r>
       <r>   -0.6446    1.0000 </r>
       <r>   -0.3013    1.0000 </r>
       <r>   -0.1666    1.0000 </r>
       <r>    0.0577    1.0000 </r>
       <r>    0.3184    1.0000 </r>
       <r>    0.4878    1.0000 </r>
       <r>    1.0103    1.0000 </r>
       <r>    1.1504    1.0000 </r>
       <r>    8.7073    0.0000 </r>
       <r>   10.4508    0.0000 </r>
       <r>   10.7372    0.0000 </r>
       <r>   10.9641    0.0000 </r>
       <r>   11.6986    0.0000 </r>
      </set>
      <set comment="kpoint 7">
       <r>  -17.8821    1.0000 </r>
       <r>  -17.1424    1.0000 </r>
       <r>  -16.3863    1.0000 </r>
       <r>  -16.0148    1.0000 </r>
       <r>  -15.9595    1.0000 </r>
       <r>  -15.9519    1.0000 </r>
       <r>   -7.3300    1.0000 </r>
       <r>   -5.9292    1.0000 </r>
       <r>   -4.6330    1.0000 </r>
       <r>   -4.1197    1.0000 </r>
       <r>   -3.8561    1.0000 </r>
       <r>   -3.5713    1.0000 </r>
       <r>   -1.8924    1.0000 </r>
       <r>   -1.3895    1.0000 </r>
       <r>   -1.3601    1.0000 </r>
       <r>   -1.1093    1.0000 </r>
       <r>   -0.6944    1.0000 </r>
       <r>   -0.1994    1.0000 </r>
       <r>   -0.1040    1.0000 </r>
       <r>    0.0408    1.0000 </r>
       <r>    0.3859    1.0000 </r>
       <r>    0.4109    1.0000 </r>
       <r>    0.9045    1.0000 </r>
       <r>    1.2518    1.0000 </r>
       <r>    8.6699    0.0000 </r>
       <r>   10.5727    0.0000 </r>
       <r>   10.8891    0.0000 </r>
       <r>   11.0308    0.0000 </r>
       <r>   11.5530    0.0000 </r>
      </set>
      <set comment="kpoint 8">
       <r>  -17.6281    1.0000 </r>
       <r>  -17.1623    1.0000 </r>
       <r>  -16.6338    1.0000 </r>
       <r>  -16.0518    1.0000 </r>
       <r>  -16.0069    1.0000 </r>
       <r>  -15.9592    1.0000 </r>
       <r>   -6.9561    1.0000 </r>
       <r>   -5.9808    1.0000 </r>
       <r>   -4.8534    1.0000 </r>
       <r>   -4.0810    1.0000 </r>
       <r>   -3.7920    1.0000 </r>
       <r>   -3.4630    1.0000 </r>
       <r>   -1.8851    1.0000 </r>
       <r>   -1.7935    1.0000 </r>
       <r>   -1.2420    1.0000 </r>
       <r>   -1.0497    1.0000 </r>
       <r>   -0.5808    1.0000 </r>
       <r>   -0.4813    1.0000 </r>
       <r>   -0.1345    1.0000 </r>
       <r>    0.1301    1.0000 </r>
       <r>    0.3608    1.0000 </r>
       <r>    0.5972    1.0000 </r>
       <r>    0.8244    1.0000 </r>
       <r>    1.1727    1.0000 </r>
       <r>    9.9103    0.0000 </r>
       <r>   10.4300    0.0000 </r>
       <r>   10.8809    0.0000 </r>
       <r>   11.3087    0.0000 </r>
       <r>   11.7979    0.0000 </r>
      </set>
      <set comment="kpoint 9">
       <r>  -17.6299    1.0000 </r>
       <r>  -17.1629    1.0000 </r>
       <r>  -16.6255    1.0000 </r>
       <r>  -16.0426    1.0000 </r>
       <r>  -16.0185    1.0000 </r>
       <r>  -15.9642    1.0000 </r>
       <r>   -6.9645    1.0000 </r>
       <r>   -5.8800    1.0000 </r>
       <r>   -5.0219    1.0000 </r>
       <r>   -4.0438    1.0000 </r>
       <r>   -3.7638    1.0000 </r>
       <r>   -3.4779    1.0000 </r>
       <r>   -1.9202    1.0000 </r>
       <r>   -1.6278    1.0000 </r>
       <r>   -1.4078    1.0000 </r>
       <r>   -0.9247    1.0000 </r>
       <r>   -0.6629    1.0000 </r>
       <r>   -0.4517    1.0000 </r>
       <r>   -0.0610    1.0000 </r>
       <r>    0.0817    1.0000 </r>
       <r>    0.3176    1.0000 </r>
       <r>    0.6057    1.0000 </r>
       <r>    0.8635    1.0000 </r>
       <r>    1.1286    1.0000 </r>
       <r>    9.7419    0.0000 </r>
       <r>   10.6610    0.0000 </r>
       <r>   10.9928    0.0000 </r>
       <r>   11.3732    0.0000 </r>
       <r>   11.5189    0.0000 </r>
      </set>
      <set comment="kpoint 10">
       <r>  -17.6936    1.0000 </r>
       <r>  -17.6936    1.0000 </r>
       <r>  -15.9930    1.0000 </r>
       <r>  -15.9579    1.0000 </r>
       <r>  -15.9579    1.0000 </r>
       <r>  -15.9137    1.0000 </r>
       <r>   -7.9425    1.0000 </r>
       <r>   -4.9373    1.0000 </r>
       <r>   -4.9373    1.0000 </r>
       <r>   -4.2614    1.0000 </r>
[...]
       <r>    1.2151    1.0000 </r>
       <r>    9.3101    0.0000 </r>
       <r>    9.3101    0.0000 </r>
       <r>   10.4363    0.0000 </r>
       <r>   10.9924    0.0000 </r>
       <r>   10.9924    0.0000 </r>
      </set>
      <set comment="kpoint 11">
       <r>  -17.6422    1.0000 </r>
       <r>  -17.5017    1.0000 </r>
       <r>  -16.2499    1.0000 </r>
       <r>  -16.0270    1.0000 </r>
       <r>  -15.9733    1.0000 </r>
       <r>  -15.9429    1.0000 </r>
       <r>   -7.5168    1.0000 </r>
       <r>   -5.3536    1.0000 </r>
       <r>   -5.0118    1.0000 </r>
       <r>   -4.0973    1.0000 </r>
       <r>   -3.9726    1.0000 </r>
       <r>   -3.4576    1.0000 </r>
       <r>   -1.7488    1.0000 </r>
       <r>   -1.7302    1.0000 </r>
       <r>   -1.2073    1.0000 </r>
       <r>   -0.9368    1.0000 </r>
       <r>   -0.7533    1.0000 </r>
       <r>   -0.2545    1.0000 </r>
       <r>   -0.1568    1.0000 </r>
       <r>    0.0438    1.0000 </r>
       <r>    0.1851    1.0000 </r>
       <r>    0.7957    1.0000 </r>
       <r>    0.8302    1.0000 </r>
       <r>    1.1403    1.0000 </r>
       <r>    9.6773    0.0000 </r>
       <r>    9.8383    0.0000 </r>
       <r>   10.7245    0.0000 </r>
       <r>   11.0283    0.0000 </r>
       <r>   11.3883    0.0000 </r>
      </set>
      <set comment="kpoint 12">
       <r>  -17.5870    1.0000 </r>
       <r>  -17.1414    1.0000 </r>
       <r>  -16.7050    1.0000 </r>
       <r>  -16.0736    1.0000 </r>
       <r>  -15.9928    1.0000 </r>
       <r>  -15.9592    1.0000 </r>
       <r>   -6.8758    1.0000 </r>
       <r>   -5.9145    1.0000 </r>
       <r>   -5.0477    1.0000 </r>
       <r>   -3.9986    1.0000 </r>
       <r>   -3.7047    1.0000 </r>
       <r>   -3.6139    1.0000 </r>
       <r>   -1.9304    1.0000 </r>
       <r>   -1.9233    1.0000 </r>
       <r>   -1.1449    1.0000 </r>
       <r>   -0.8268    1.0000 </r>
       <r>   -0.7466    1.0000 </r>
       <r>   -0.2752    1.0000 </r>
       <r>    0.0245    1.0000 </r>
       <r>    0.1889    1.0000 </r>
       <r>    0.3974    1.0000 </r>
       <r>    0.4040    1.0000 </r>
       <r>    0.6989    1.0000 </r>
       <r>    1.1183    1.0000 </r>
       <r>   10.2282    0.0000 </r>
       <r>   10.7240    0.0000 </r>
       <r>   11.0127    0.0000 </r>
       <r>   11.1988    0.0000 </r>
       <r>   11.5406    0.0000 </r>
      </set>
      <set comment="kpoint 13">
       <r>  -17.5751    1.0000 </r>
       <r>  -17.1859    1.0000 </r>
       <r>  -16.6525    1.0000 </r>
       <r>  -16.0618    1.0000 </r>
       <r>  -15.9928    1.0000 </r>
       <r>  -15.9924    1.0000 </r>
       <r>   -6.8566    1.0000 </r>
       <r>   -5.8699    1.0000 </r>
       <r>   -5.1567    1.0000 </r>
       <r>   -3.8986    1.0000 </r>
       <r>   -3.7952    1.0000 </r>
       <r>   -3.6146    1.0000 </r>
       <r>   -1.9739    1.0000 </r>
       <r>   -1.7468    1.0000 </r>
       <r>   -1.2648    1.0000 </r>
       <r>   -0.8988    1.0000 </r>
       <r>   -0.6229    1.0000 </r>
       <r>   -0.4212    1.0000 </r>
       <r>    0.1492    1.0000 </r>
       <r>    0.2572    1.0000 </r>
       <r>    0.3284    1.0000 </r>
       <r>    0.5713    1.0000 </r>
       <r>    0.7152    1.0000 </r>
       <r>    0.9231    1.0000 </r>
       <r>   10.1774    0.0000 </r>
       <r>   10.6512    0.0000 </r>
       <r>   10.9604    0.0000 </r>
       <r>   11.3047    0.0000 </r>
       <r>   11.7196    0.0000 </r>
      </set>
     </set>
    </set>
   </array>
  </eigenvalues>
  <separator name="orbital magnetization" >
   <v name="MAGDIPOLOUT">      0.00000000      0.00000000      0.00000000</v>
  </separator>
  <dos>
   <i name="efermi">      1.78335466 </i>
   <total>
    <array>
     <dimension dim="1">gridpoints</dimension>
     <dimension dim="2">spin</dimension>
     <field>energy</field>
     <field>total</field>
     <field>integrated</field>
     <set>
      <set comment="spin 1">
       <r>   -19.6802     0.0000     0.0000 </r>
       <r>   -19.5696     0.0000     0.0000 </r>
       <r>   -19.4590     0.0000     0.0000 </r>
       <r>   -19.3484     0.0000     0.0000 </r>
       <r>   -19.2378     0.0000     0.0000 </r>
       <r>   -19.1271     0.0000     0.0000 </r>
       <r>   -19.0165     0.0000     0.0000 </r>
       <r>   -18.9059     0.0000     0.0000 </r>
       <r>   -18.7953     0.0000     0.0000 </r>
       <r>   -18.6847     0.0000     0.0000 </r>
       <r>   -18.5740     0.0000     0.0000 </r>
       <r>   -18.4634     0.0000     0.0000 </r>
       <r>   -18.3528     0.0015     0.0002 </r>
       <r>   -18.2422     0.0455     0.0052 </r>
       <r>   -18.1316     0.2561     0.0335 </r>
       <r>   -18.0210     0.9592     0.1396 </r>
       <r>   -17.9103     2.1804     0.3808 </r>
       <r>   -17.7997     2.2490     0.6296 </r>
       <r>   -17.6891     3.1543     0.9785 </r>
       <r>   -17.5785     6.7082     1.7206 </r>
       <r>   -17.4679     3.7446     2.1348 </r>
       <r>   -17.3572     0.7683     2.2198 </r>
       <r>   -17.2466     1.6675     2.4043 </r>
       <r>   -17.1360     7.3330     3.2154 </r>
       <r>   -17.0254     4.7025     3.7356 </r>
       <r>   -16.9148     0.5607     3.7977 </r>
       <r>   -16.8041     0.9818     3.9063 </r>
       <r>   -16.6935     2.7510     4.2106 </r>
       <r>   -16.5829     6.4600     4.9252 </r>
       <r>   -16.4723     3.7445     5.3394 </r>
       <r>   -16.3617     1.9948     5.5601 </r>
       <r>   -16.2510     2.2051     5.8040 </r>
       <r>   -16.1404     3.0096     6.1369 </r>
       <r>   -16.0298    16.1079     7.9187 </r>
       <r>   -15.9192    27.1482    10.9219 </r>
       <r>   -15.8086     9.2145    11.9412 </r>
       <r>   -15.6979     0.5278    11.9995 </r>
       <r>   -15.5873     0.0041    12.0000 </r>
       <r>   -15.4767     0.0000    12.0000 </r>
       <r>   -15.3661     0.0000    12.0000 </r>
       <r>   -15.2555     0.0000    12.0000 </r>
       <r>   -15.1449     0.0000    12.0000 </r>
       <r>   -15.0342     0.0000    12.0000 </r>
       <r>   -14.9236     0.0000    12.0000 </r>
       <r>   -14.8130     0.0000    12.0000 </r>
       <r>   -14.7024     0.0000    12.0000 </r>
       <r>   -14.5918     0.0000    12.0000 </r>
       <r>   -14.4811     0.0000    12.0000 </r>
       <r>   -14.3705     0.0000    12.0000 </r>
       <r>   -14.2599     0.0000    12.0000 </r>
       <r>   -14.1493     0.0000    12.0000 </r>
       <r>   -14.0387     0.0000    12.0000 </r>
       <r>   -13.9280     0.0000    12.0000 </r>
       <r>   -13.8174     0.0000    12.0000 </r>
       <r>   -13.7068     0.0000    12.0000 </r>
       <r>   -13.5962     0.0000    12.0000 </r>
       <r>   -13.4856     0.0000    12.0000 </r>
       <r>   -13.3749     0.0000    12.0000 </r>
       <r>   -13.2643     0.0000    12.0000 </r>
       <r>   -13.1537     0.0000    12.0000 </r>
       <r>   -13.0431     0.0000    12.0000 </r>
       <r>   -12.9325     0.0000    12.0000 </r>
       <r>   -12.8218     0.0000    12.0000 </r>
       <r>   -12.7112     0.0000    12.0000 </r>
       <r>   -12.6006     0.0000    12.0000 </r>
       <r>   -12.4900     0.0000    12.0000 </r>
       <r>   -12.3794     0.0000    12.0000 </r>
       <r>   -12.2688     0.0000    12.0000 </r>
       <r>   -12.1581     0.0000    12.0000 </r>
       <r>   -12.0475     0.0000    12.0000 </r>
       <r>   -11.9369     0.0000    12.0000 </r>
       <r>   -11.8263     0.0000    12.0000 </r>
       <r>   -11.7157     0.0000    12.0000 </r>
       <r>   -11.6050     0.0000    12.0000 </r>
       <r>   -11.4944     0.0000    12.0000 </r>
       <r>   -11.3838     0.0000    12.0000 </r>
       <r>   -11.2732     0.0000    12.0000 </r>
       <r>   -11.1626     0.0000    12.0000 </r>
       <r>   -11.0519     0.0000    12.0000 </r>
       <r>   -10.9413     0.0000    12.0000 </r>
       <r>   -10.8307     0.0000    12.0000 </r>
       <r>   -10.7201     0.0000    12.0000 </r>
       <r>   -10.6095     0.0000    12.0000 </r>
       <r>   -10.4988     0.0000    12.0000 </r>
       <r>   -10.3882     0.0000    12.0000 </r>
       <r>   -10.2776     0.0000    12.0000 </r>
       <r>   -10.1670     0.0000    12.0000 </r>
       <r>   -10.0564     0.0000    12.0000 </r>
       <r>    -9.9457     0.0000    12.0000 </r>
       <r>    -9.8351     0.0000    12.0000 </r>
       <r>    -9.7245     0.0000    12.0000 </r>
       <r>    -9.6139     0.0000    12.0000 </r>
       <r>    -9.5033     0.0000    12.0000 </r>
       <r>    -9.3926     0.0000    12.0000 </r>
       <r>    -9.2820     0.0000    12.0000 </r>
       <r>    -9.1714     0.0000    12.0000 </r>
       <r>    -9.0608     0.0000    12.0000 </r>
       <r>    -8.9502     0.0000    12.0000 </r>
       <r>    -8.8396     0.0000    12.0000 </r>
       <r>    -8.7289     0.0000    12.0000 </r>
       <r>    -8.6183     0.0000    12.0000 </r>
       <r>    -8.5077     0.0000    12.0000 </r>
       <r>    -8.3971     0.0000    12.0000 </r>
       <r>    -8.2865     0.0000    12.0000 </r>
       <r>    -8.1758     0.0001    12.0000 </r>
       <r>    -8.0652     0.0115    12.0013 </r>
       <r>    -7.9546     0.1104    12.0135 </r>
       <r>    -7.8440     0.1392    12.0289 </r>
       <r>    -7.7334     0.0930    12.0392 </r>
       <r>    -7.6227     0.4147    12.0851 </r>
       <r>    -7.5121     0.9736    12.1928 </r>
       <r>    -7.4015     1.2284    12.3287 </r>
       <r>    -7.2909     1.9591    12.5454 </r>
       <r>    -7.1803     1.0350    12.6599 </r>
       <r>    -7.0696     1.3757    12.8120 </r>
       <r>    -6.9590     4.6031    13.3212 </r>
       <r>    -6.8484     4.7693    13.8488 </r>
       <r>    -6.7378     1.5310    14.0182 </r>
       <r>    -6.6272     0.1969    14.0399 </r>
       <r>    -6.5165     0.6952    14.1168 </r>
       <r>    -6.4059     0.7978    14.2051 </r>
       <r>    -6.2953     0.1214    14.2185 </r>
       <r>    -6.1847     0.0260    14.2214 </r>
       <r>    -6.0741     0.5234    14.2793 </r>
       <r>    -5.9635     3.3963    14.6550 </r>
       <r>    -5.8528     6.9559    15.4244 </r>
       <r>    -5.7422     3.0158    15.7581 </r>
       <r>    -5.6316     0.2079    15.7811 </r>
       <r>    -5.5210     0.0169    15.7829 </r>
       <r>    -5.4104     0.3428    15.8208 </r>
       <r>    -5.2997     0.9956    15.9310 </r>
       <r>    -5.1891     0.9328    16.0342 </r>
       <r>    -5.0785     2.1834    16.2757 </r>
       <r>    -4.9679     3.8899    16.7060 </r>
       <r>    -4.8573     2.9905    17.0368 </r>
       <r>    -4.7466     1.8782    17.2446 </r>
       <r>    -4.6360     1.7869    17.4422 </r>
       <r>    -4.5254     2.0087    17.6644 </r>
       <r>    -4.4148     0.6190    17.7329 </r>
       <r>    -4.3042     0.7530    17.8162 </r>
       <r>    -4.1935     3.0633    18.1550 </r>
       <r>    -4.0829     8.8178    19.1305 </r>
       <r>    -3.9723     9.7117    20.2048 </r>
       <r>    -3.8617     6.6362    20.9389 </r>
       <r>    -3.7511     6.7574    21.6864 </r>
       <r>    -3.6404     5.7106    22.3181 </r>
       <r>    -3.5298     5.7216    22.9510 </r>
       <r>    -3.4192     5.0978    23.5149 </r>
       <r>    -3.3086     2.6692    23.8102 </r>
       <r>    -3.1980     1.4523    23.9708 </r>
       <r>    -3.0874     0.2579    23.9993 </r>
       <r>    -2.9767     0.0059    24.0000 </r>
       <r>    -2.8661     0.0000    24.0000 </r>
       <r>    -2.7555     0.0000    24.0000 </r>
       <r>    -2.6449     0.0000    24.0000 </r>
       <r>    -2.5343     0.0000    24.0000 </r>
       <r>    -2.4236     0.0000    24.0000 </r>
       <r>    -2.3130     0.0000    24.0000 </r>
       <r>    -2.2024     0.0014    24.0002 </r>
       <r>    -2.0918     0.1568    24.0175 </r>
       <r>    -1.9812     2.5757    24.3024 </r>
       <r>    -1.8705     7.9203    25.1786 </r>
       <r>    -1.7599     8.1453    26.0796 </r>
       <r>    -1.6493     6.8347    26.8356 </r>
       <r>    -1.5387     5.3538    27.4279 </r>
       <r>    -1.4281     6.3197    28.1269 </r>
       <r>    -1.3174     8.5114    29.0685 </r>
       <r>    -1.2068     5.9737    29.7293 </r>
       <r>    -1.0962     3.9144    30.1623 </r>
       <r>    -0.9856     4.8118    30.6946 </r>
       <r>    -0.8750     8.3706    31.6205 </r>
       <r>    -0.7643     6.9797    32.3926 </r>
       <r>    -0.6537     7.3819    33.2092 </r>
       <r>    -0.5431     6.3329    33.9097 </r>
       <r>    -0.4325     6.2338    34.5993 </r>
       <r>    -0.3219     5.9564    35.2582 </r>
       <r>    -0.2112     8.0035    36.1435 </r>
       <r>    -0.1006     9.8438    37.2325 </r>
       <r>     0.0100     8.1765    38.1369 </r>
       <r>     0.1206     8.9456    39.1265 </r>
       <r>     0.2312     9.4709    40.1742 </r>
       <r>     0.3418    10.6906    41.3567 </r>
       <r>     0.4525     8.8064    42.3309 </r>
       <r>     0.5631     5.8013    42.9726 </r>
       <r>     0.6737     6.2973    43.6692 </r>
       <r>     0.7843     5.2909    44.2545 </r>
       <r>     0.8949     6.6649    44.9918 </r>
       <r>     1.0056     6.7161    45.7347 </r>
       <r>     1.1162     7.8182    46.5996 </r>
       <r>     1.2268     8.3037    47.5181 </r>
       <r>     1.3374     3.7895    47.9373 </r>
       <r>     1.4480     0.5530    47.9985 </r>
       <r>     1.5587     0.0138    48.0000 </r>
       <r>     1.6693     0.0000    48.0000 </r>
       <r>     1.7799     0.0000    48.0000 </r>
       <r>     1.8905     0.0000    48.0000 </r>
       <r>     2.0011     0.0000    48.0000 </r>
       <r>     2.1118     0.0000    48.0000 </r>
       <r>     2.2224     0.0000    48.0000 </r>
       <r>     2.3330     0.0000    48.0000 </r>
       <r>     2.4436     0.0000    48.0000 </r>
       <r>     2.5542     0.0000    48.0000 </r>
       <r>     2.6649     0.0000    48.0000 </r>
       <r>     2.7755     0.0000    48.0000 </r>
       <r>     2.8861     0.0000    48.0000 </r>
       <r>     2.9967     0.0000    48.0000 </r>
       <r>     3.1073     0.0000    48.0000 </r>
       <r>     3.2179     0.0000    48.0000 </r>
       <r>     3.3286     0.0000    48.0000 </r>
       <r>     3.4392     0.0000    48.0000 </r>
       <r>     3.5498     0.0000    48.0000 </r>
       <r>     3.6604     0.0000    48.0000 </r>
       <r>     3.7710     0.0000    48.0000 </r>
       <r>     3.8817     0.0000    48.0000 </r>
       <r>     3.9923     0.0000    48.0000 </r>
       <r>     4.1029     0.0000    48.0000 </r>
       <r>     4.2135     0.0000    48.0000 </r>
       <r>     4.3241     0.0000    48.0000 </r>
       <r>     4.4348     0.0000    48.0000 </r>
       <r>     4.5454     0.0000    48.0000 </r>
       <r>     4.6560     0.0000    48.0000 </r>
       <r>     4.7666     0.0000    48.0000 </r>
       <r>     4.8772     0.0000    48.0000 </r>
       <r>     4.9879     0.0000    48.0000 </r>
       <r>     5.0985     0.0000    48.0000 </r>
       <r>     5.2091     0.0000    48.0000 </r>
       <r>     5.3197     0.0000    48.0000 </r>
       <r>     5.4303     0.0000    48.0000 </r>
       <r>     5.5410     0.0000    48.0000 </r>
       <r>     5.6516     0.0000    48.0000 </r>
       <r>     5.7622     0.0000    48.0000 </r>
       <r>     5.8728     0.0000    48.0000 </r>
       <r>     5.9834     0.0000    48.0000 </r>
       <r>     6.0940     0.0000    48.0000 </r>
       <r>     6.2047     0.0000    48.0000 </r>
       <r>     6.3153     0.0000    48.0000 </r>
       <r>     6.4259     0.0000    48.0000 </r>
       <r>     6.5365     0.0000    48.0000 </r>
       <r>     6.6471     0.0000    48.0000 </r>
       <r>     6.7578     0.0000    48.0000 </r>
       <r>     6.8684     0.0000    48.0000 </r>
       <r>     6.9790     0.0000    48.0000 </r>
       <r>     7.0896     0.0001    48.0000 </r>
       <r>     7.2002     0.0114    48.0013 </r>
       <r>     7.3109     0.1098    48.0134 </r>
       <r>     7.4215     0.1378    48.0287 </r>
       <r>     7.5321     0.0229    48.0312 </r>
       <r>     7.6427     0.0005    48.0313 </r>
       <r>     7.7533     0.0027    48.0316 </r>
       <r>     7.8640     0.0840    48.0408 </r>
       <r>     7.9746     0.3126    48.0754 </r>
       <r>     8.0852     0.1871    48.0961 </r>
       <r>     8.1958     0.4889    48.1502 </r>
       <r>     8.3064     0.9331    48.2534 </r>
       <r>     8.4171     0.2442    48.2804 </r>
       <r>     8.5277     0.0543    48.2864 </r>
       <r>     8.6383     0.7868    48.3735 </r>
       <r>     8.7489     1.8611    48.5793 </r>
       <r>     8.8595     0.6625    48.6526 </r>
       <r>     8.9702     0.0326    48.6562 </r>
       <r>     9.0808     0.0005    48.6563 </r>
       <r>     9.1914     0.0260    48.6592 </r>
       <r>     9.3020     0.2423    48.6860 </r>
       <r>     9.4126     0.5721    48.7493 </r>
       <r>     9.5232     1.0718    48.8678 </r>
       <r>     9.6339     1.4213    49.0250 </r>
       <r>     9.7445     3.0448    49.3618 </r>
       <r>     9.8551     2.9930    49.6929 </r>
       <r>     9.9657     1.7833    49.8902 </r>
       <r>    10.0763     0.5542    49.9515 </r>
       <r>    10.1870     1.0544    50.0681 </r>
       <r>    10.2976     1.3867    50.2215 </r>
       <r>    10.4082     2.0428    50.4475 </r>
       <r>    10.5188     3.1235    50.7930 </r>
       <r>    10.6294     4.9929    51.3453 </r>
       <r>    10.7401     9.0216    52.3433 </r>
       <r>    10.8507     6.2433    53.0339 </r>
       <r>    10.9613     6.4720    53.7499 </r>
       <r>    11.0719     7.4093    54.5695 </r>
       <r>    11.1825     3.0508    54.9070 </r>
       <r>    11.2932     3.6333    55.3089 </r>
       <r>    11.4038     5.6474    55.9336 </r>
       <r>    11.5144     6.3233    56.6331 </r>
       <r>    11.6250     5.4051    57.2310 </r>
       <r>    11.7356     3.4219    57.6095 </r>
       <r>    11.8463     2.1826    57.8509 </r>
       <r>    11.9569     0.7197    57.9305 </r>
       <r>    12.0675     0.4924    57.9850 </r>
       <r>    12.1781     0.1311    57.9995 </r>
       <r>    12.2887     0.0044    58.0000 </r>
       <r>    12.3993     0.0000    58.0000 </r>
       <r>    12.5100     0.0000    58.0000 </r>
       <r>    12.6206     0.0000    58.0000 </r>
       <r>    12.7312     0.0000    58.0000 </r>
       <r>    12.8418     0.0000    58.0000 </r>
       <r>    12.9524     0.0000    58.0000 </r>
       <r>    13.0631     0.0000    58.0000 </r>
       <r>    13.1737     0.0000    58.0000 </r>
       <r>    13.2843     0.0000    58.0000 </r>
       <r>    13.3949     0.0000    58.0000 </r>
       <r>    13.5055     0.0000    58.0000 </r>
      </set>
     </set>
    </array>
   </total>
  </dos>
 </calculation>
 <structure name="finalpos" >
  <crystal>
   <varray name="basis" >
    <v>       4.87342988       0.00000000       0.00000000 </v>
    <v>      -2.43671494       4.22051408       0.00000000 </v>
    <v>       0.00000000       0.00000000       5.37418982 </v>
   </varray>
   <i name="volume">    110.53837516 </i>
   <varray name="rec_basis" >
    <v>       0.20519429       0.11846898      -0.00000000 </v>
    <v>       0.00000000       0.23693796       0.00000000 </v>
    <v>       0.00000000      -0.00000000       0.18607456 </v>
   </varray>
  </crystal>
  <varray name="positions" >
   <v>       0.46457701       0.00000000       0.66666667 </v>
   <v>       0.00000000       0.46457701       0.33333333 </v>
   <v>       0.53542299       0.53542299       0.00000000 </v>
   <v>       0.13562164       0.72413619       0.55429239 </v>
   <v>       0.27586381       0.41148546       0.22095906 </v>
   <v>       0.58851454       0.86437836       0.88762572 </v>
   <v>       0.41148546       0.27586381       0.77904094 </v>
   <v>       0.86437836       0.58851454       0.11237428 </v>
   <v>       0.72413619       0.13562164       0.44570761 </v>
  </varray>
 </structure>
</modeling>
