<?xml version="1.0" encoding="ISO-8859-1"?>
<modeling>
 <generator>
  <i name="program" type="string">vasp </i>
  <i name="version" type="string">6.4.1  </i>
  <i name="subversion" type="string">05Apr23 (build Sep  6 2023 20:49:31) complex                          parallel </i>
  <i name="platform" type="string">LinuxNV </i>
  <i name="date" type="string">2023 10 19 </i>
  <i name="time" type="string">14:08:47 </i>
 </generator>
 <incar>
  <i type="string" name="PREC">Accurate</i>
  <i type="string" name="ALGO">Fast</i>
  <i name="EDIFF">      0.00000001</i>
  <i name="ENCUT">    500.00000000</i>
  <i type="int" name="ISMEAR">     0</i>
  <i name="SIGMA">      0.10000000</i>
  <i type="logical" name="LEPSILON"> T  </i>
 </incar>
 <primitive_cell>
  <structure name="primitive_cell" >
   <crystal>
    <varray name="basis" >
     <v>       4.87342988       0.00000000       0.00000000 </v>
     <v>      -2.43671494       4.22051408       0.00000000 </v>
     <v>       0.00000000       0.00000000       5.37418982 </v>
    </varray>
    <i name="volume">    110.53837516 </i>
    <varray name="rec_basis" >
     <v>       0.20519429       0.11846898      -0.00000000 </v>
     <v>       0.00000000       0.23693796       0.00000000 </v>
     <v>       0.00000000      -0.00000000       0.18607456 </v>
    </varray>
   </crystal>
   <varray name="positions" >
    <v>       0.46465927       0.99995265       0.66657238 </v>
    <v>       0.00004735       0.46470663       0.33323904 </v>
    <v>       0.53529337       0.53534073       0.99990571 </v>
    <v>       0.13563911       0.72414422       0.55427153 </v>
    <v>       0.27585578       0.41149489       0.22093820 </v>
    <v>       0.58850511       0.86436089       0.88760486 </v>
    <v>       0.41151582       0.27617920       0.77922732 </v>
    <v>       0.86466337       0.58848418       0.11256065 </v>
    <v>       0.72382080       0.13533663       0.44589398 </v>
   </varray>
  </structure>
  <varray name="primitive_index" >
   <v type="int" >        1 </v>
   <v type="int" >        2 </v>
   <v type="int" >        3 </v>
   <v type="int" >        4 </v>
   <v type="int" >        5 </v>
   <v type="int" >        6 </v>
   <v type="int" >        7 </v>
   <v type="int" >        8 </v>
   <v type="int" >        9 </v>
  </varray>
 </primitive_cell>
 <kpoints>
  <generation param="Gamma">
   <v type="int" name="divisions">       4        4        4 </v>
   <v name="usershift">      0.00000000       0.00000000       0.00000000 </v>
   <v name="genvec1">      0.25000000       0.00000000       0.00000000 </v>
   <v name="genvec2">      0.00000000       0.25000000       0.00000000 </v>
   <v name="genvec3">      0.00000000       0.00000000       0.25000000 </v>
   <v name="shift">      0.00000000       0.00000000       0.00000000 </v>
  </generation>
  <varray name="kpointlist" >
   <v>       0.00000000       0.00000000       0.00000000 </v>
   <v>       0.25000000       0.00000000       0.00000000 </v>
   <v>       0.50000000       0.00000000       0.00000000 </v>
   <v>       0.25000000       0.25000000       0.00000000 </v>
   <v>       0.00000000       0.00000000       0.25000000 </v>
   <v>       0.25000000       0.00000000       0.25000000 </v>
   <v>       0.00000000       0.25000000       0.25000000 </v>
   <v>       0.50000000       0.00000000       0.25000000 </v>
   <v>       0.25000000       0.25000000       0.25000000 </v>
   <v>      -0.25000000       0.50000000       0.25000000 </v>
   <v>       0.00000000       0.00000000       0.50000000 </v>
   <v>       0.25000000       0.00000000       0.50000000 </v>
   <v>       0.50000000       0.00000000       0.50000000 </v>
   <v>       0.25000000       0.25000000       0.50000000 </v>
  </varray>
  <varray name="weights" >
   <v>       0.01562500 </v>
   <v>       0.09375000 </v>
   <v>       0.04687500 </v>
   <v>       0.09375000 </v>
   <v>       0.03125000 </v>
   <v>       0.09375000 </v>
   <v>       0.09375000 </v>
   <v>       0.09375000 </v>
   <v>       0.09375000 </v>
   <v>       0.09375000 </v>
   <v>       0.01562500 </v>
   <v>       0.09375000 </v>
   <v>       0.04687500 </v>
   <v>       0.09375000 </v>
  </varray>
 </kpoints>
 <parameters>
  <separator name="general" >
   <i type="string" name="SYSTEM">unknown system</i>
   <i type="logical" name="LCOMPAT"> F  </i>
  </separator>
  <separator name="electronic" >
   <i type="string" name="PREC">accura</i>
   <i name="ENMAX">    500.00000000</i>
   <i name="ENAUG">    605.39200000</i>
   <i name="EDIFF">      0.00000001</i>
   <i type="int" name="IALGO">    68</i>
   <i type="int" name="IWAVPR">    10</i>
   <i type="int" name="NBANDS">    29</i>
   <i type="int" name="NBANDSLOW">    -1</i>
   <i type="int" name="NBANDSHIGH">    -1</i>
   <i name="NELECT">     48.00000000</i>
   <i type="int" name="TURBO">     0</i>
   <i type="int" name="IRESTART">     0</i>
   <i type="int" name="NREBOOT">     0</i>
   <i type="int" name="NMIN">     0</i>
   <i name="EREF">      0.00000000</i>
   <separator name="electronic smearing" >
    <i type="int" name="ISMEAR">     0</i>
    <i name="SIGMA">      0.10000000</i>
    <i name="KSPACING">      0.50000000</i>
    <i type="logical" name="KGAMMA"> T  </i>
    <i type="logical" name="KBLOWUP"> T  </i>
   </separator>
   <separator name="electronic projectors" >
    <i type="logical" name="LREAL"> F  </i>
    <v name="ROPT">      0.00000000      0.00000000</v>
    <i type="int" name="LMAXPAW">  -100</i>
    <i type="int" name="LMAXMIX">     2</i>
    <i type="logical" name="NLSPLINE"> F  </i>
   </separator>
   <separator name="electronic startup" >
    <i type="int" name="ISTART">     0</i>
    <i type="int" name="ICHARG">     2</i>
    <i type="int" name="INIWAV">     1</i>
   </separator>
   <separator name="electronic spin" >
    <i type="int" name="ISPIN">     1</i>
    <i type="logical" name="LNONCOLLINEAR"> F  </i>
    <v name="MAGMOM">      1.00000000      1.00000000      1.00000000      1.00000000      1.00000000      1.00000000      1.00000000      1.00000000      1.00000000</v>
    <i name="NUPDOWN">     -1.00000000</i>
    <i type="logical" name="LSORBIT"> F  </i>
    <v name="SAXIS">      0.00000000      0.00000000      1.00000000</v>
    <i type="logical" name="LSPIRAL"> F  </i>
    <v name="QSPIRAL">      0.00000000      0.00000000      0.00000000</v>
    <i type="logical" name="LZEROZ"> F  </i>
   </separator>
   <separator name="electronic exchange-correlation" >
    <i type="logical" name="LASPH"> F  </i>
    <i type="logical" name="LMETAGGA"> F  </i>
   </separator>
   <separator name="electronic convergence" >
    <i type="int" name="NELM">    60</i>
    <i type="int" name="NELMDL">    -5</i>
    <i type="int" name="NELMIN">     2</i>
    <i name="ENINI">    500.00000000</i>
    <separator name="electronic convergence detail" >
     <i type="logical" name="LDIAG"> T  </i>
     <i type="logical" name="LSUBROT"> F  </i>
     <i name="WEIMIN">      0.00000000</i>
     <i name="EBREAK">      0.00000000</i>
     <i name="DEPER">      0.30000000</i>
     <i type="int" name="NRMM">     4</i>
     <i name="TIME">      0.40000000</i>
    </separator>
   </separator>
   <separator name="electronic mixer" >
    <i name="AMIX">      0.40000000</i>
    <i name="BMIX">      1.00000000</i>
    <i name="AMIN">      0.10000000</i>
    <i name="AMIX_MAG">      1.60000000</i>
    <i name="BMIX_MAG">      1.00000000</i>
    <separator name="electronic mixer details" >
     <i type="int" name="IMIX">     4</i>
     <i type="logical" name="MIXFIRST"> F  </i>
     <i type="int" name="MAXMIX">   -45</i>
     <i name="WC">    100.00000000</i>
     <i type="int" name="INIMIX">     1</i>
     <i type="int" name="MIXPRE">     1</i>
     <i type="int" name="MREMOVE">     5</i>
    </separator>
   </separator>
   <separator name="electronic dipolcorrection" >
    <i type="logical" name="LDIPOL"> F  </i>
    <i type="logical" name="LMONO"> F  </i>
    <i type="int" name="IDIPOL">     0</i>
    <i name="EPSILON">      1.00000000</i>
    <v name="DIPOL">   -100.00000000   -100.00000000   -100.00000000</v>
    <i name="EFIELD">      0.00000000</i>
   </separator>
  </separator>
  <separator name="grids" >
   <i type="int" name="NGX">    36</i>
   <i type="int" name="NGY">    36</i>
   <i type="int" name="NGZ">    40</i>
   <i type="int" name="NGXF">    72</i>
   <i type="int" name="NGYF">    72</i>
   <i type="int" name="NGZF">    80</i>
   <i type="logical" name="ADDGRID"> F  </i>
  </separator>
  <separator name="ionic" >
   <i type="int" name="NSW">     0</i>
   <i type="int" name="IBRION">    -1</i>
   <i type="int" name="MDALGO">     0</i>
   <i type="int" name="ISIF">     2</i>
   <i name="PSTRESS">      0.00000000</i>
   <i name="EDIFFG">      0.00000010</i>
   <i type="int" name="NFREE">     0</i>
   <i name="POTIM">      0.50000000</i>
   <i name="SMASS">     -3.00000000</i>
   <i name="SCALEE">      1.00000000</i>
  </separator>
  <separator name="ionic md" >
   <i name="TEBEG">      0.00010000</i>
   <i name="TEEND">      0.00010000</i>
   <i type="int" name="NBLOCK">     1</i>
   <i type="int" name="KBLOCK">     1</i>
   <i type="int" name="NPACO">   256</i>
   <i name="APACO">     10.00000000</i>
  </separator>
  <separator name="symmetry" >
   <i type="int" name="ISYM">     2</i>
   <i name="SYMPREC">      0.00001000</i>
  </separator>
  <separator name="dos" >
   <i type="int" name="LORBIT">     0</i>
   <v name="RWIGS">     -1.00000000     -1.00000000</v>
   <i type="int" name="NEDOS">   301</i>
   <i name="EMIN">     10.00000000</i>
   <i name="EMAX">    -10.00000000</i>
   <i name="EFERMI">      0.00000000</i>
  </separator>
  <separator name="writing" >
   <i type="int" name="NWRITE">     2</i>
   <i type="logical" name="LWAVE"> T  </i>
   <i type="logical" name="LDOWNSAMPLE"> F  </i>
   <i type="logical" name="LCHARG"> T  </i>
   <i type="logical" name="LPARD"> F  </i>
   <i type="logical" name="LVTOT"> F  </i>
   <i type="logical" name="LVHAR"> F  </i>
   <i type="logical" name="LELF"> F  </i>
   <i type="logical" name="LOPTICS"> F  </i>
   <v name="STM">      0.00000000      0.00000000      0.00000000      0.00000000      0.00000000      0.00000000      0.00000000</v>
  </separator>
  <separator name="performance" >
   <i type="int" name="NPAR">     1</i>
   <i type="int" name="NSIM">     4</i>
   <i type="int" name="NBLK">    -1</i>
   <i type="logical" name="LPLANE"> T  </i>
   <i type="logical" name="LSCALAPACK"> T  </i>
   <i type="logical" name="LSCAAWARE"> F  </i>
   <i type="logical" name="LSCALU"> F  </i>
   <i type="logical" name="LASYNC"> F  </i>
   <i type="logical" name="LORBITALREAL"> F  </i>
  </separator>
  <separator name="miscellaneous" >
   <i type="int" name="IDIOT">     3</i>
   <i type="int" name="PHON_NSTRUCT">    -1</i>
   <i type="logical" name="LMUSIC"> F  </i>
   <v name="POMASS">     28.08500000     16.00000000</v>
   <v name="DARWINR">      0.00000000      0.00000000</v>
   <v name="DARWINV">      1.00000000      1.00000000</v>
   <i type="logical" name="LCORR"> T  </i>
  </separator>
  <i type="logical" name="GGA_COMPAT"> T  </i>
  <i type="logical" name="LBERRY"> F  </i>
  <i type="int" name="ICORELEVEL">     0</i>
  <i type="logical" name="LDAU"> F  </i>
  <i type="int" name="I_CONSTRAINED_M">     0</i>
  <separator name="electronic exchange-correlation" >
   <i type="string" name="GGA">--</i>
   <i type="int" name="VOSKOWN">     0</i>
   <i type="logical" name="LHFCALC"> F  </i>
   <i type="string" name="PRECFOCK"></i>
   <i type="logical" name="LSYMGRAD"> F  </i>
   <i type="logical" name="LHFONE"> F  </i>
   <i type="logical" name="LRHFCALC"> F  </i>
   <i type="logical" name="LTHOMAS"> F  </i>
   <i type="logical" name="LMODELHF"> F  </i>
   <i type="logical" name="LFOCKACE"> F  </i>
   <i name="ENCUT4O">     -1.00000000</i>
   <i type="int" name="EXXOEP">     0</i>
   <i type="int" name="FOURORBIT">     0</i>
   <i name="AEXX">      0.00000000</i>
   <i name="HFALPHA">      0.00000000</i>
   <i name="MCALPHA">      0.00000000</i>
   <i name="ALDAX">      1.00000000</i>
   <i name="AGGAX">      1.00000000</i>
   <i name="ALDAC">      1.00000000</i>
   <i name="AGGAC">      1.00000000</i>
   <i type="int" name="NKREDX">     1</i>
   <i type="int" name="NKREDY">     1</i>
   <i type="int" name="NKREDZ">     1</i>
   <i type="logical" name="SHIFTRED"> F  </i>
   <i type="logical" name="ODDONLY"> F  </i>
   <i type="logical" name="EVENONLY"> F  </i>
   <i type="int" name="LMAXFOCK">     0</i>
   <i type="int" name="NMAXFOCKAE">     0</i>
   <i type="logical" name="LFOCKAEDFT"> F  </i>
   <i name="HFSCREEN">      0.00000000</i>
   <i name="HFSCREENC">      0.00000000</i>
   <i type="int" name="NBANDSGWLOW">     0</i>
  </separator>
  <separator name="vdW DFT" >
   <i type="logical" name="LUSE_VDW"> F  </i>
   <i type="int" name="IVDW_NL">     1</i>
   <i type="logical" name="LSPIN_VDW"> F  </i>
   <i name="Zab_VDW">     -0.84910000</i>
   <i name="PARAM1">      0.12340000</i>
   <i name="PARAM2">      1.00000000</i>
   <i name="PARAM3">      0.00000000</i>
  </separator>
  <separator name="model GW" >
   <i type="int" name="MODEL_GW">     0</i>
   <i name="MODEL_EPS0">      7.36922501</i>
   <i name="MODEL_ALPHA">      1.00000000</i>
  </separator>
  <separator name="linear response parameters" >
   <i type="logical" name="LEPSILON"> T  </i>
   <i type="logical" name="LRPA"> F  </i>
   <i type="logical" name="LNABLA"> F  </i>
   <i type="logical" name="LVEL"> F  </i>
   <i name="CSHIFT">      0.10000000</i>
   <i name="OMEGAMAX">     -1.00000000</i>
   <i name="DEG_THRESHOLD">      0.00200000</i>
   <i name="RTIME">     -0.10000000</i>
   <i name="WPLASMAI">      0.00000000</i>
   <v name="DFIELD">      0.00000000      0.00000000      0.00000000</v>
   <v name="WPLASMA">      0.00000000      0.00000000      0.00000000      0.00000000      0.00000000      0.00000000      0.00000000      0.00000000      0.00000000</v>
  </separator>
  <separator name="orbital magnetization" >
   <i type="logical" name="NUCIND"> F  </i>
   <v name="MAGPOS">      0.00000000      0.00000000      0.00000000</v>
   <i type="logical" name="LNICSALL"> T  </i>
   <i type="logical" name="ORBITALMAG"> F  </i>
   <i type="logical" name="LMAGBLOCH"> F  </i>
   <i type="logical" name="LCHIMAG"> F  </i>
   <i type="logical" name="LGAUGE"> T  </i>
   <i type="int" name="MAGATOM">     0</i>
   <v name="MAGDIPOL">      0.00000000      0.00000000      0.00000000</v>
   <v name="AVECCONST">      0.00000000      0.00000000      0.00000000</v>
  </separator>
  <separator name="response functions" >
   <i type="logical" name="LALL_IN_ONE"> F  </i>
   <i type="int" name="IALL_IN_ONE">    -1</i>
   <i type="int" name="NBANDS_WAVE">    -1</i>
   <i type="logical" name="LFINITE_TEMPERATURE"> F  </i>
   <i type="logical" name="LADDER"> F  </i>
   <i type="logical" name="LRPAFORCE"> F  </i>
   <i type="logical" name="LFXC"> F  </i>
   <i type="logical" name="LHARTREE"> T  </i>
   <i type="int" name="IBSE">     0</i>
   <v type="int" name="KPOINT">    -1     0     0     0</v>
   <i type="logical" name="LTCTC"> F  </i>
   <i type="logical" name="LTCTE"> F  </i>
   <i type="logical" name="LTETE"> F  </i>
   <i type="logical" name="LTRIPLET"> F  </i>
   <i type="logical" name="LFXCEPS"> F  </i>
   <i type="logical" name="LFXHEG"> F  </i>
   <i type="int" name="NATURALO">     2</i>
   <i type="logical" name="LHOLEGF"> F  </i>
   <i type="logical" name="L2ORDER"> F  </i>
   <i type="logical" name="LDMP1"> F  </i>
   <i type="logical" name="LMP2LT"> F  </i>
   <i type="logical" name="LSMP2LT"> F  </i>
   <i type="logical" name="LGWLF"> F  </i>
   <i name="ENCUTGW">     -1.60000002</i>
   <i name="ENCUTGWSOFT">     -1.60000002</i>
   <i name="ENCUTLF">     -1.00000000</i>
   <i type="logical" name="LESF_SPLINES"> F  </i>
   <i type="int" name="LMAXMP2">    -1</i>
   <i name="SCISSOR">      0.00000000</i>
   <i type="int" name="NOMEGA">     0</i>
   <i type="int" name="NOMEGAR">     0</i>
   <i type="int" name="NBANDSGW">    -1</i>
   <i type="int" name="NBANDSO">    -1</i>
   <i type="int" name="NBANDSV">    -1</i>
   <i type="int" name="NELMGW">     1</i>
   <i type="int" name="NELMHF">     1</i>
   <i type="int" name="DIM">     3</i>
   <i type="int" name="IESPILON">     4</i>
   <i type="int" name="ANTIRES">     0</i>
   <i name="OMEGAMAX">    -30.00000000</i>
   <i name="OMEGAMIN">    -30.00000000</i>
   <i name="OMEGATL">   -200.00000000</i>
   <i type="int" name="OMEGAGRID">     0</i>
   <i name="CSHIFT">     -0.10000000</i>
   <i type="logical" name="LSELFENERGY"> F  </i>
   <i type="logical" name="LSPECTRAL"> F  </i>
   <i type="logical" name="LSPECTRALGW"> F  </i>
   <i type="logical" name="LSINGLES"> F  </i>
   <i type="logical" name="LFERMIGW"> F  </i>
   <i type="logical" name="ODDONLYGW"> F  </i>
   <i type="logical" name="EVENONLYGW"> F  </i>
   <i type="int" name="NKREDLFX">     1</i>
   <i type="int" name="NKREDLFY">     1</i>
   <i type="int" name="NKREDLFZ">     1</i>
   <i type="int" name="MAXMEM">  2800</i>
   <i type="int" name="TELESCOPE">     0</i>
   <i type="int" name="NTAUPAR">    -1</i>
   <i type="int" name="NOMEGAPAR">    -1</i>
   <i name="DAMP_NEWTON">      0.80000001</i>
   <i name="LAMBDA">      1.00000000</i>
  </separator>
  <separator name="External order field" >
   <i name="OFIELD_KAPPA">      0.00000000</i>
   <v name="OFIELD_K">      0.00000000      0.00000000      0.00000000</v>
   <i name="OFIELD_Q6_NEAR">      0.00000000</i>
   <i name="OFIELD_Q6_FAR">      0.00000000</i>
   <i name="OFIELD_A">      0.00000000</i>
  </separator>
  <separator name="optional k-points parameters" >
   <i type="int" name="KPOINTS_OPT_MODE">     1</i>
   <i type="logical" name="LKPOINTS_OPT"> F  </i>
  </separator>
 </parameters>
 <atominfo>
  <atoms>       9 </atoms>
  <types>       2 </types>
  <array name="atoms" >
   <dimension dim="1">ion</dimension>
   <field type="string">element</field>
   <field type="int">atomtype</field>
   <set>
    <rc><c>Si</c><c>   1</c></rc>
    <rc><c>Si</c><c>   1</c></rc>
    <rc><c>Si</c><c>   1</c></rc>
    <rc><c>O </c><c>   2</c></rc>
    <rc><c>O </c><c>   2</c></rc>
    <rc><c>O </c><c>   2</c></rc>
    <rc><c>O </c><c>   2</c></rc>
    <rc><c>O </c><c>   2</c></rc>
    <rc><c>O </c><c>   2</c></rc>
   </set>
  </array>
  <array name="atomtypes" >
   <dimension dim="1">type</dimension>
   <field type="int">atomspertype</field>
   <field type="string">element</field>
   <field>mass</field>
   <field>valence</field>
   <field type="string">pseudopotential</field>
   <set>
    <rc><c>   3</c><c>Si</c><c>     28.08500000</c><c>      4.00000000</c><c>  PAW_PBE Si 05Jan2001                  </c></rc>
    <rc><c>   6</c><c>O </c><c>     16.00000000</c><c>      6.00000000</c><c>  PAW_PBE O 08Apr2002                   </c></rc>
   </set>
  </array>
 </atominfo>
 <structure name="initialpos" >
  <crystal>
   <varray name="basis" >
    <v>       4.87342988       0.00000000       0.00000000 </v>
    <v>      -2.43671494       4.22051408       0.00000000 </v>
    <v>       0.00000000       0.00000000       5.37418982 </v>
   </varray>
   <i name="volume">    110.53837516 </i>
   <varray name="rec_basis" >
    <v>       0.20519429       0.11846898      -0.00000000 </v>
    <v>       0.00000000       0.23693796       0.00000000 </v>
    <v>       0.00000000      -0.00000000       0.18607456 </v>
   </varray>
  </crystal>
  <varray name="positions" >
   <v>       0.46465927       0.99995265       0.66657238 </v>
   <v>       0.00004735       0.46470663       0.33323904 </v>
   <v>       0.53529337       0.53534073       0.99990571 </v>
   <v>       0.13563911       0.72414422       0.55427153 </v>
   <v>       0.27585578       0.41149489       0.22093820 </v>
   <v>       0.58850511       0.86436089       0.88760486 </v>
   <v>       0.41151582       0.27617920       0.77922732 </v>
   <v>       0.86466337       0.58848418       0.11256065 </v>
   <v>       0.72382080       0.13533663       0.44589398 </v>
  </varray>
 </structure>
 <calculation>
  <scstep>
   <time name="dav">    0.51    0.51</time>
   <time name="total">    0.55    0.53</time>
   <energy>
    <i name="alphaZ">     71.30271804 </i>
    <i name="ewald">  -1930.19257742 </i>
    <i name="hartreedc">   -909.39760935 </i>
    <i name="XCdc">    141.70970730 </i>
    <i name="pawpsdc">   2343.66826019 </i>
    <i name="pawaedc">  -2301.68043871 </i>
    <i name="eentropy">     -0.00955765 </i>
    <i name="bandstr">    -15.81836338 </i>
    <i name="atom">   2903.33737771 </i>
    <i name="e_fr_energy">    302.91951674 </i>
    <i name="e_wo_entrp">    302.92907438 </i>
    <i name="e_0_energy">    302.92429556 </i>
   </energy>
  </scstep>
  <scstep>
   <time name="dav">    0.49    0.49</time>
   <time name="total">    0.49    0.49</time>
   <energy>
    <i name="e_fr_energy">    -60.95078325 </i>
    <i name="e_wo_entrp">    -60.95078325 </i>
    <i name="e_0_energy">    -60.95078325 </i>
   </energy>
  </scstep>
  <scstep>
   <time name="dav">    0.45    0.45</time>
   <time name="total">    0.45    0.45</time>
   <energy>
    <i name="e_fr_energy">    -80.16833268 </i>
    <i name="e_wo_entrp">    -80.16833268 </i>
    <i name="e_0_energy">    -80.16833268 </i>
   </energy>
  </scstep>
  <scstep>
   <time name="dav">    0.45    0.45</time>
   <time name="total">    0.45    0.45</time>
   <energy>
    <i name="e_fr_energy">    -80.41805773 </i>
    <i name="e_wo_entrp">    -80.41805773 </i>
    <i name="e_0_energy">    -80.41805773 </i>
   </energy>
  </scstep>
  <scstep>
   <time name="dav">    0.45    0.45</time>
   <time name="total">    0.54    0.51</time>
   <energy>
    <i name="e_fr_energy">    -80.42318248 </i>
    <i name="e_wo_entrp">    -80.42318248 </i>
    <i name="e_0_energy">    -80.42318248 </i>
   </energy>
  </scstep>
  <scstep>
   <time name="diag">    0.05    0.05</time>
   <time name="diis">    0.50    0.51</time>
   <time name="orth">    0.00    0.00</time>
   <time name="total">    0.68    0.63</time>
   <energy>
    <i name="e_fr_energy">    -70.67396839 </i>
    <i name="e_wo_entrp">    -70.67396839 </i>
    <i name="e_0_energy">    -70.67396839 </i>
   </energy>
  </scstep>
  <scstep>
   <time name="diag">    0.05    0.05</time>
   <time name="diis">    0.56    0.56</time>
   <time name="orth">    0.00    0.00</time>
   <time name="total">    0.73    0.68</time>
   <energy>
    <i name="e_fr_energy">    -70.97646669 </i>
    <i name="e_wo_entrp">    -70.97646669 </i>
    <i name="e_0_energy">    -70.97646669 </i>
   </energy>
  </scstep>
  <scstep>
   <time name="diag">    0.05    0.05</time>
   <time name="diis">    0.56    0.56</time>
   <time name="orth">    0.00    0.00</time>
   <time name="total">    0.73    0.68</time>
   <energy>
    <i name="e_fr_energy">    -70.96823731 </i>
    <i name="e_wo_entrp">    -70.96823731 </i>
    <i name="e_0_energy">    -70.96823731 </i>
   </energy>
  </scstep>
  <scstep>
   <time name="diag">    0.05    0.05</time>
   <time name="diis">    0.57    0.57</time>
   <time name="orth">    0.00    0.00</time>
   <time name="total">    0.74    0.69</time>
   <energy>
    <i name="e_fr_energy">    -70.98728332 </i>
    <i name="e_wo_entrp">    -70.98728332 </i>
    <i name="e_0_energy">    -70.98728332 </i>
   </energy>
  </scstep>
  <scstep>
   <time name="diag">    0.05    0.05</time>
   <time name="diis">    0.57    0.57</time>
   <time name="orth">    0.00    0.00</time>
   <time name="total">    0.74    0.69</time>
   <energy>
    <i name="e_fr_energy">    -70.99258450 </i>
    <i name="e_wo_entrp">    -70.99258450 </i>
    <i name="e_0_energy">    -70.99258450 </i>
   </energy>
  </scstep>
  <scstep>
   <time name="diag">    0.05    0.05</time>
   <time name="diis">    0.57    0.57</time>
   <time name="orth">    0.00    0.00</time>
   <time name="total">    0.74    0.69</time>
   <energy>
    <i name="e_fr_energy">    -70.98869314 </i>
    <i name="e_wo_entrp">    -70.98869314 </i>
    <i name="e_0_energy">    -70.98869314 </i>
   </energy>
  </scstep>
  <scstep>
   <time name="diag">    0.05    0.05</time>
   <time name="diis">    0.57    0.57</time>
   <time name="orth">    0.00    0.00</time>
   <time name="total">    0.74    0.69</time>
   <energy>
    <i name="e_fr_energy">    -70.98929429 </i>
    <i name="e_wo_entrp">    -70.98929429 </i>
    <i name="e_0_energy">    -70.98929429 </i>
   </energy>
  </scstep>
  <scstep>
   <time name="diag">    0.05    0.05</time>
   <time name="diis">    0.60    0.60</time>
   <time name="orth">    0.00    0.00</time>
   <time name="total">    0.78    0.73</time>
   <energy>
    <i name="e_fr_energy">    -70.98905392 </i>
    <i name="e_wo_entrp">    -70.98905392 </i>
    <i name="e_0_energy">    -70.98905392 </i>
   </energy>
  </scstep>
  <scstep>
   <time name="diag">    0.05    0.05</time>
   <time name="diis">    0.58    0.58</time>
   <time name="orth">    0.00    0.00</time>
   <time name="total">    0.75    0.70</time>
   <energy>
    <i name="e_fr_energy">    -70.98901296 </i>
    <i name="e_wo_entrp">    -70.98901296 </i>
    <i name="e_0_energy">    -70.98901296 </i>
   </energy>
  </scstep>
  <scstep>
   <time name="diag">    0.05    0.05</time>
   <time name="diis">    0.63    0.63</time>
   <time name="orth">    0.00    0.00</time>
   <time name="total">    0.80    0.75</time>
   <energy>
    <i name="e_fr_energy">    -70.98901018 </i>
    <i name="e_wo_entrp">    -70.98901018 </i>
    <i name="e_0_energy">    -70.98901018 </i>
   </energy>
  </scstep>
  <scstep>
   <time name="diag">    0.05    0.05</time>
   <time name="diis">    0.57    0.58</time>
   <time name="orth">    0.00    0.00</time>
   <time name="total">    0.75    0.70</time>
   <energy>
    <i name="e_fr_energy">    -70.98900883 </i>
    <i name="e_wo_entrp">    -70.98900883 </i>
    <i name="e_0_energy">    -70.98900883 </i>
   </energy>
  </scstep>
  <scstep>
   <time name="diag">    0.05    0.05</time>
   <time name="diis">    0.57    0.57</time>
   <time name="orth">    0.00    0.00</time>
   <time name="total">    0.74    0.69</time>
   <energy>
    <i name="e_fr_energy">    -70.98900906 </i>
    <i name="e_wo_entrp">    -70.98900906 </i>
    <i name="e_0_energy">    -70.98900906 </i>
   </energy>
  </scstep>
  <scstep>
   <time name="diag">    0.05    0.05</time>
   <time name="diis">    0.61    0.61</time>
   <time name="orth">    0.00    0.00</time>
   <time name="total">    0.79    0.73</time>
   <energy>
    <i name="e_fr_energy">    -70.98900926 </i>
    <i name="e_wo_entrp">    -70.98900926 </i>
    <i name="e_0_energy">    -70.98900926 </i>
   </energy>
  </scstep>
  <scstep>
   <time name="diag">    0.05    0.05</time>
   <time name="diis">    0.57    0.57</time>
   <time name="orth">    0.00    0.00</time>
   <time name="total">    0.75    0.69</time>
   <energy>
    <i name="e_fr_energy">    -70.98900922 </i>
    <i name="e_wo_entrp">    -70.98900922 </i>
    <i name="e_0_energy">    -70.98900922 </i>
   </energy>
  </scstep>
  <scstep>
   <time name="diag">    0.05    0.05</time>
   <time name="diis">    0.57    0.57</time>
   <time name="orth">    0.00    0.00</time>
   <time name="total">    0.75    0.70</time>
   <energy>
    <i name="e_fr_energy">    -70.98900925 </i>
    <i name="e_wo_entrp">    -70.98900925 </i>
    <i name="e_0_energy">    -70.98900925 </i>
   </energy>
  </scstep>
  <scstep>
   <time name="diag">    0.05    0.05</time>
   <time name="diis">    0.39    0.39</time>
   <time name="orth">    0.00    0.00</time>
   <time name="total">    0.56    0.51</time>
   <energy>
    <i name="e_fr_energy">    -70.98900923 </i>
    <i name="e_wo_entrp">    -70.98900923 </i>
    <i name="e_0_energy">    -70.98900923 </i>
   </energy>
  </scstep>
  <scstep>
   <time name="diag">    0.05    0.05</time>
   <time name="diis">    0.38    0.38</time>
   <time name="orth">    0.00    0.00</time>
   <time name="total">    0.46    0.44</time>
   <energy>
    <i name="alphaZ">     71.30271804 </i>
    <i name="ewald">  -1930.19257742 </i>
    <i name="hartreedc">  -1040.55769586 </i>
    <i name="XCdc">    150.68547297 </i>
    <i name="pawpsdc">   8045.53228176 </i>
    <i name="pawaedc">  -8005.91009722 </i>
    <i name="eentropy">     -0.00000000 </i>
    <i name="bandstr">   -265.18648921 </i>
    <i name="atom">   2903.33737771 </i>
    <i name="e_fr_energy">    -70.98900923 </i>
    <i name="e_wo_entrp">    -70.98900923 </i>
    <i name="e_0_energy">    -70.98900923 </i>
   </energy>
  </scstep>
  <structure>
   <crystal>
    <varray name="basis" >
     <v>       4.87342988       0.00000000       0.00000000 </v>
     <v>      -2.43671494       4.22051408       0.00000000 </v>
     <v>       0.00000000       0.00000000       5.37418982 </v>
    </varray>
    <i name="volume">    110.53837516 </i>
    <varray name="rec_basis" >
     <v>       0.20519429       0.11846898      -0.00000000 </v>
     <v>       0.00000000       0.23693796       0.00000000 </v>
     <v>       0.00000000      -0.00000000       0.18607456 </v>
    </varray>
   </crystal>
   <varray name="positions" >
    <v>       0.46465927       0.99995265       0.66657238 </v>
    <v>       0.00004735       0.46470663       0.33323904 </v>
    <v>       0.53529337       0.53534073       0.99990571 </v>
    <v>       0.13563911       0.72414422       0.55427153 </v>
    <v>       0.27585578       0.41149489       0.22093820 </v>
    <v>       0.58850511       0.86436089       0.88760486 </v>
    <v>       0.41151582       0.27617920       0.77922732 </v>
    <v>       0.86466337       0.58848418       0.11256065 </v>
    <v>       0.72382080       0.13533663       0.44589398 </v>
   </varray>
  </structure>
  <varray name="forces" >
   <v>       0.01816053       0.02489000       0.06310360 </v>
   <v>      -0.03063564       0.00328248       0.06310360 </v>
   <v>       0.01247511      -0.02817248       0.06310360 </v>
   <v>      -0.29963259      -0.04954039       0.12187342 </v>
   <v>       0.19271954      -0.23471924       0.12187342 </v>
   <v>       0.10691306       0.28425963       0.12187342 </v>
   <v>      -0.25096746      -0.04731799      -0.18497703 </v>
   <v>       0.08450515       0.24100319      -0.18497703 </v>
   <v>       0.16646231      -0.19368520      -0.18497703 </v>
  </varray>
  <varray name="stress" >
   <v>      71.98369872       0.00000102       0.00000000 </v>
   <v>      -0.00000102      71.98369872       0.00000000 </v>
   <v>       0.00000000       0.00000000      73.63134281 </v>
  </varray>
  <energy>
   <i name="e_fr_energy">    -70.98900923 </i>
   <i name="e_wo_entrp">    -70.98900923 </i>
   <i name="e_0_energy">    -70.98900923 </i>
  </energy>
  <scstep>
   <time name="total">    7.10    1.51</time>
   <energy>
    <i name="e_fr_energy">   -182.68354504 </i>
    <i name="e_wo_entrp">   -182.68354504 </i>
    <i name="e_0_energy">   -182.68354504 </i>
   </energy>
  </scstep>
  <scstep>
   <time name="total">    6.91    1.33</time>
   <energy>
    <i name="e_fr_energy">   -172.55207918 </i>
    <i name="e_wo_entrp">   -172.55207918 </i>
    <i name="e_0_energy">   -172.55207918 </i>
   </energy>
  </scstep>
  <scstep>
   <time name="total">    6.92    1.33</time>
   <energy>
    <i name="e_fr_energy">   -172.69852883 </i>
    <i name="e_wo_entrp">   -172.69852883 </i>
    <i name="e_0_energy">   -172.69852883 </i>
   </energy>
  </scstep>
  <scstep>
   <time name="total">    0.54    0.54</time>
   <energy>
    <i name="e_fr_energy">   -172.70593849 </i>
    <i name="e_wo_entrp">   -172.70593849 </i>
    <i name="e_0_energy">   -172.70593849 </i>
   </energy>
  </scstep>
  <scstep>
   <time name="total">    0.54    0.54</time>
   <energy>
    <i name="e_fr_energy">   -172.70610700 </i>
    <i name="e_wo_entrp">   -172.70610700 </i>
    <i name="e_0_energy">   -172.70610700 </i>
   </energy>
  </scstep>
  <scstep>
   <time name="total">    0.54    0.54</time>
   <energy>
    <i name="e_fr_energy">   -172.70611781 </i>
    <i name="e_wo_entrp">   -172.70611781 </i>
    <i name="e_0_energy">   -172.70611781 </i>
   </energy>
  </scstep>
  <scstep>
   <time name="total">    0.54    0.54</time>
   <energy>
    <i name="e_fr_energy">   -172.70611789 </i>
    <i name="e_wo_entrp">   -172.70611789 </i>
    <i name="e_0_energy">   -172.70611789 </i>
   </energy>
  </scstep>
  <scstep>
   <time name="total">    0.54    0.54</time>
   <energy>
    <i name="e_fr_energy">   -172.70611829 </i>
    <i name="e_wo_entrp">   -172.70611829 </i>
    <i name="e_0_energy">   -172.70611829 </i>
   </energy>
  </scstep>
  <scstep>
   <time name="total">    0.54    0.54</time>
   <energy>
    <i name="e_fr_energy">   -172.70611893 </i>
    <i name="e_wo_entrp">   -172.70611893 </i>
    <i name="e_0_energy">   -172.70611893 </i>
   </energy>
  </scstep>
  <scstep>
   <time name="total">    0.54    0.54</time>
   <energy>
    <i name="e_fr_energy">   -172.70611919 </i>
    <i name="e_wo_entrp">   -172.70611919 </i>
    <i name="e_0_energy">   -172.70611919 </i>
   </energy>
  </scstep>
  <scstep>
   <time name="total">    7.08    1.51</time>
   <energy>
    <i name="e_fr_energy">   -182.07752877 </i>
    <i name="e_wo_entrp">   -182.07752877 </i>
    <i name="e_0_energy">   -182.07752877 </i>
   </energy>
  </scstep>
  <scstep>
   <time name="total">    6.90    1.32</time>
   <energy>
    <i name="e_fr_energy">   -172.66843364 </i>
    <i name="e_wo_entrp">   -172.66843364 </i>
    <i name="e_0_energy">   -172.66843364 </i>
   </energy>
  </scstep>
  <scstep>
   <time name="total">    6.93    1.33</time>
   <energy>
    <i name="e_fr_energy">   -172.81157841 </i>
    <i name="e_wo_entrp">   -172.81157841 </i>
    <i name="e_0_energy">   -172.81157841 </i>
   </energy>
  </scstep>
  <scstep>
   <time name="total">    0.54    0.54</time>
   <energy>
    <i name="e_fr_energy">   -172.81889605 </i>
    <i name="e_wo_entrp">   -172.81889605 </i>
    <i name="e_0_energy">   -172.81889605 </i>
   </energy>
  </scstep>
  <scstep>
   <time name="total">    0.54    0.54</time>
   <energy>
    <i name="e_fr_energy">   -172.81908072 </i>
    <i name="e_wo_entrp">   -172.81908072 </i>
    <i name="e_0_energy">   -172.81908072 </i>
   </energy>
  </scstep>
  <scstep>
   <time name="total">    0.54    0.54</time>
   <energy>
    <i name="e_fr_energy">   -172.81909674 </i>
    <i name="e_wo_entrp">   -172.81909674 </i>
    <i name="e_0_energy">   -172.81909674 </i>
   </energy>
  </scstep>
  <scstep>
   <time name="total">    0.54    0.54</time>
   <energy>
    <i name="e_fr_energy">   -172.81909755 </i>
    <i name="e_wo_entrp">   -172.81909755 </i>
    <i name="e_0_energy">   -172.81909755 </i>
   </energy>
  </scstep>
  <scstep>
   <time name="total">    0.54    0.54</time>
   <energy>
    <i name="e_fr_energy">   -172.81909746 </i>
    <i name="e_wo_entrp">   -172.81909746 </i>
    <i name="e_0_energy">   -172.81909746 </i>
   </energy>
  </scstep>
  <scstep>
   <time name="total">    0.54    0.54</time>
   <energy>
    <i name="e_fr_energy">   -172.81909630 </i>
    <i name="e_wo_entrp">   -172.81909630 </i>
    <i name="e_0_energy">   -172.81909630 </i>
   </energy>
  </scstep>
  <scstep>
   <time name="total">    0.54    0.54</time>
   <energy>
    <i name="e_fr_energy">   -172.81909597 </i>
    <i name="e_wo_entrp">   -172.81909597 </i>
    <i name="e_0_energy">   -172.81909597 </i>
   </energy>
  </scstep>
  <scstep>
   <time name="total">    7.09    1.51</time>
   <energy>
    <i name="e_fr_energy">   -182.14551491 </i>
    <i name="e_wo_entrp">   -182.14551491 </i>
    <i name="e_0_energy">   -182.14551491 </i>
   </energy>
  </scstep>
  <scstep>
   <time name="total">    6.89    1.31</time>
   <energy>
    <i name="e_fr_energy">   -172.55626353 </i>
    <i name="e_wo_entrp">   -172.55626353 </i>
    <i name="e_0_energy">   -172.55626353 </i>
   </energy>
  </scstep>
  <scstep>
   <time name="total">    6.92    1.33</time>
   <energy>
    <i name="e_fr_energy">   -172.70909448 </i>
    <i name="e_wo_entrp">   -172.70909448 </i>
    <i name="e_0_energy">   -172.70909448 </i>
   </energy>
  </scstep>
  <scstep>
   <time name="total">    0.53    0.53</time>
   <energy>
    <i name="e_fr_energy">   -172.71643590 </i>
    <i name="e_wo_entrp">   -172.71643590 </i>
    <i name="e_0_energy">   -172.71643590 </i>
   </energy>
  </scstep>
  <scstep>
   <time name="total">    0.53    0.54</time>
   <energy>
    <i name="e_fr_energy">   -172.71659081 </i>
    <i name="e_wo_entrp">   -172.71659081 </i>
    <i name="e_0_energy">   -172.71659081 </i>
   </energy>
  </scstep>
  <scstep>
   <time name="total">    0.53    0.54</time>
   <energy>
    <i name="e_fr_energy">   -172.71659875 </i>
    <i name="e_wo_entrp">   -172.71659875 </i>
    <i name="e_0_energy">   -172.71659875 </i>
   </energy>
  </scstep>
  <scstep>
   <time name="total">    0.54    0.54</time>
   <energy>
    <i name="e_fr_energy">   -172.71659527 </i>
    <i name="e_wo_entrp">   -172.71659527 </i>
    <i name="e_0_energy">   -172.71659527 </i>
   </energy>
  </scstep>
  <scstep>
   <time name="total">    0.54    0.54</time>
   <energy>
    <i name="e_fr_energy">   -172.71660501 </i>
    <i name="e_wo_entrp">   -172.71660501 </i>
    <i name="e_0_energy">   -172.71660501 </i>
   </energy>
  </scstep>
  <scstep>
   <time name="total">    0.54    0.54</time>
   <energy>
    <i name="e_fr_energy">   -172.71660896 </i>
    <i name="e_wo_entrp">   -172.71660896 </i>
    <i name="e_0_energy">   -172.71660896 </i>
   </energy>
  </scstep>
  <scstep>
   <time name="total">    0.54    0.54</time>
   <energy>
    <i name="e_fr_energy">   -172.71660980 </i>
    <i name="e_wo_entrp">   -172.71660980 </i>
    <i name="e_0_energy">   -172.71660980 </i>
   </energy>
  </scstep>
  <scstep>
   <time name="total">    1.24    0.77</time>
   <energy>
    <i name="e_fr_energy">     -0.48219087 </i>
    <i name="e_wo_entrp">     -0.48219087 </i>
    <i name="e_0_energy">     -0.48219087 </i>
   </energy>
  </scstep>
  <scstep>
   <time name="total">    1.23    0.76</time>
   <energy>
    <i name="e_fr_energy">     -0.48461285 </i>
    <i name="e_wo_entrp">     -0.48461285 </i>
    <i name="e_0_energy">     -0.48461285 </i>
   </energy>
  </scstep>
  <scstep>
   <time name="total">    1.23    0.77</time>
   <energy>
    <i name="e_fr_energy">     -0.48479528 </i>
    <i name="e_wo_entrp">     -0.48479528 </i>
    <i name="e_0_energy">     -0.48479528 </i>
   </energy>
  </scstep>
  <scstep>
   <time name="total">    1.24    0.77</time>
   <energy>
    <i name="e_fr_energy">     -0.48480389 </i>
    <i name="e_wo_entrp">     -0.48480389 </i>
    <i name="e_0_energy">     -0.48480389 </i>
   </energy>
  </scstep>
  <scstep>
   <time name="total">    1.23    0.77</time>
   <energy>
    <i name="e_fr_energy">     -0.48480419 </i>
    <i name="e_wo_entrp">     -0.48480419 </i>
    <i name="e_0_energy">     -0.48480419 </i>
   </energy>
  </scstep>
  <scstep>
   <time name="total">    1.20    0.74</time>
   <energy>
    <i name="e_fr_energy">     -0.48480421 </i>
    <i name="e_wo_entrp">     -0.48480421 </i>
    <i name="e_0_energy">     -0.48480421 </i>
   </energy>
  </scstep>
  <scstep>
   <time name="total">    1.16    0.70</time>
   <energy>
    <i name="e_fr_energy">     -0.48480421 </i>
    <i name="e_wo_entrp">     -0.48480421 </i>
    <i name="e_0_energy">     -0.48480421 </i>
   </energy>
  </scstep>
  <scstep>
   <time name="total">    1.15    0.69</time>
   <energy>
    <i name="e_fr_energy">     -0.48480421 </i>
    <i name="e_wo_entrp">     -0.48480421 </i>
    <i name="e_0_energy">     -0.48480421 </i>
   </energy>
  </scstep>
  <scstep>
   <time name="total">    1.14    0.68</time>
   <energy>
    <i name="e_fr_energy">     -0.48480421 </i>
    <i name="e_wo_entrp">     -0.48480421 </i>
    <i name="e_0_energy">     -0.48480421 </i>
   </energy>
  </scstep>
  <scstep>
   <time name="total">    1.14    0.68</time>
   <energy>
    <i name="e_fr_energy">     -0.48480421 </i>
    <i name="e_wo_entrp">     -0.48480421 </i>
    <i name="e_0_energy">     -0.48480421 </i>
   </energy>
  </scstep>
  <scstep>
   <time name="total">    1.24    0.77</time>
   <energy>
    <i name="e_fr_energy">     -0.48392762 </i>
    <i name="e_wo_entrp">     -0.48392762 </i>
    <i name="e_0_energy">     -0.48392762 </i>
   </energy>
  </scstep>
  <scstep>
   <time name="total">    1.23    0.77</time>
   <energy>
    <i name="e_fr_energy">     -0.48612911 </i>
    <i name="e_wo_entrp">     -0.48612911 </i>
    <i name="e_0_energy">     -0.48612911 </i>
   </energy>
  </scstep>
  <scstep>
   <time name="total">    1.48    0.81</time>
   <energy>
    <i name="e_fr_energy">     -0.48632154 </i>
    <i name="e_wo_entrp">     -0.48632154 </i>
    <i name="e_0_energy">     -0.48632154 </i>
   </energy>
  </scstep>
  <scstep>
   <time name="total">    1.24    0.77</time>
   <energy>
    <i name="e_fr_energy">     -0.48633029 </i>
    <i name="e_wo_entrp">     -0.48633029 </i>
    <i name="e_0_energy">     -0.48633029 </i>
   </energy>
  </scstep>
  <scstep>
   <time name="total">    1.24    0.77</time>
   <energy>
    <i name="e_fr_energy">     -0.48633060 </i>
    <i name="e_wo_entrp">     -0.48633060 </i>
    <i name="e_0_energy">     -0.48633060 </i>
   </energy>
  </scstep>
  <scstep>
   <time name="total">    1.20    0.74</time>
   <energy>
    <i name="e_fr_energy">     -0.48633063 </i>
    <i name="e_wo_entrp">     -0.48633063 </i>
    <i name="e_0_energy">     -0.48633063 </i>
   </energy>
  </scstep>
  <scstep>
   <time name="total">    1.16    0.70</time>
   <energy>
    <i name="e_fr_energy">     -0.48633063 </i>
    <i name="e_wo_entrp">     -0.48633063 </i>
    <i name="e_0_energy">     -0.48633063 </i>
   </energy>
  </scstep>
  <scstep>
   <time name="total">    1.15    0.68</time>
   <energy>
    <i name="e_fr_energy">     -0.48633063 </i>
    <i name="e_wo_entrp">     -0.48633063 </i>
    <i name="e_0_energy">     -0.48633063 </i>
   </energy>
  </scstep>
  <scstep>
   <time name="total">    1.14    0.68</time>
   <energy>
    <i name="e_fr_energy">     -0.48633063 </i>
    <i name="e_wo_entrp">     -0.48633063 </i>
    <i name="e_0_energy">     -0.48633063 </i>
   </energy>
  </scstep>
  <scstep>
   <time name="total">    1.14    0.68</time>
   <energy>
    <i name="e_fr_energy">     -0.48633063 </i>
    <i name="e_wo_entrp">     -0.48633063 </i>
    <i name="e_0_energy">     -0.48633063 </i>
   </energy>
  </scstep>
  <scstep>
   <time name="total">    1.23    0.76</time>
   <energy>
    <i name="e_fr_energy">     -0.48761075 </i>
    <i name="e_wo_entrp">     -0.48761075 </i>
    <i name="e_0_energy">     -0.48761075 </i>
   </energy>
  </scstep>
  <scstep>
   <time name="total">    1.23    0.76</time>
   <energy>
    <i name="e_fr_energy">     -0.48965485 </i>
    <i name="e_wo_entrp">     -0.48965485 </i>
    <i name="e_0_energy">     -0.48965485 </i>
   </energy>
  </scstep>
  <scstep>
   <time name="total">    1.22    0.76</time>
   <energy>
    <i name="e_fr_energy">     -0.48984589 </i>
    <i name="e_wo_entrp">     -0.48984589 </i>
    <i name="e_0_energy">     -0.48984589 </i>
   </energy>
  </scstep>
  <scstep>
   <time name="total">    1.23    0.77</time>
   <energy>
    <i name="e_fr_energy">     -0.48985481 </i>
    <i name="e_wo_entrp">     -0.48985481 </i>
    <i name="e_0_energy">     -0.48985481 </i>
   </energy>
  </scstep>
  <scstep>
   <time name="total">    1.23    0.77</time>
   <energy>
    <i name="e_fr_energy">     -0.48985512 </i>
    <i name="e_wo_entrp">     -0.48985512 </i>
    <i name="e_0_energy">     -0.48985512 </i>
   </energy>
  </scstep>
  <scstep>
   <time name="total">    1.20    0.74</time>
   <energy>
    <i name="e_fr_energy">     -0.48985514 </i>
    <i name="e_wo_entrp">     -0.48985514 </i>
    <i name="e_0_energy">     -0.48985514 </i>
   </energy>
  </scstep>
  <scstep>
   <time name="total">    1.15    0.69</time>
   <energy>
    <i name="e_fr_energy">     -0.48985514 </i>
    <i name="e_wo_entrp">     -0.48985514 </i>
    <i name="e_0_energy">     -0.48985514 </i>
   </energy>
  </scstep>
  <scstep>
   <time name="total">    1.14    0.67</time>
   <energy>
    <i name="e_fr_energy">     -0.48985514 </i>
    <i name="e_wo_entrp">     -0.48985514 </i>
    <i name="e_0_energy">     -0.48985514 </i>
   </energy>
  </scstep>
  <scstep>
   <time name="total">    1.13    0.67</time>
   <energy>
    <i name="e_fr_energy">     -0.48985514 </i>
    <i name="e_wo_entrp">     -0.48985514 </i>
    <i name="e_0_energy">     -0.48985514 </i>
   </energy>
  </scstep>
  <scstep>
   <time name="total">    1.13    0.67</time>
   <energy>
    <i name="e_fr_energy">     -0.48985514 </i>
    <i name="e_wo_entrp">     -0.48985514 </i>
    <i name="e_0_energy">     -0.48985514 </i>
   </energy>
  </scstep>
  <varray name="dielectric_ipa" >
   <v>       2.58975849      -0.00000023       0.00000000 </v>
   <v>       0.00000023       2.58975849       0.00000000 </v>
   <v>       0.00000000       0.00000000       2.60380029 </v>
  </varray>
  <kpoints>
   <generation param="Gamma">
    <v type="int" name="divisions">       4        4        4 </v>
    <v name="usershift">      0.00000000       0.00000000       0.00000000 </v>
    <v name="genvec1">      0.25000000       0.00000000       0.00000000 </v>
    <v name="genvec2">      0.00000000       0.25000000       0.00000000 </v>
    <v name="genvec3">      0.00000000       0.00000000       0.25000000 </v>
    <v name="shift">      0.00000000       0.00000000       0.00000000 </v>
   </generation>
   <varray name="kpointlist" >
    <v>       0.00000000       0.00000000       0.00000000 </v>
    <v>       0.25000000       0.00000000       0.00000000 </v>
    <v>       0.00000000       0.25000000       0.00000000 </v>
    <v>      -0.25000000       0.25000000       0.00000000 </v>
    <v>       0.50000000       0.00000000       0.00000000 </v>
    <v>       0.00000000       0.50000000       0.00000000 </v>
    <v>       0.50000000       0.50000000       0.00000000 </v>
    <v>       0.25000000       0.25000000       0.00000000 </v>
    <v>      -0.25000000       0.50000000       0.00000000 </v>
    <v>       0.50000000       0.25000000       0.00000000 </v>
    <v>       0.00000000       0.00000000       0.25000000 </v>
    <v>       0.25000000       0.00000000       0.25000000 </v>
    <v>       0.00000000       0.25000000       0.25000000 </v>
    <v>      -0.25000000       0.25000000       0.25000000 </v>
    <v>      -0.25000000       0.00000000       0.25000000 </v>
    <v>       0.00000000      -0.25000000       0.25000000 </v>
    <v>       0.25000000      -0.25000000       0.25000000 </v>
    <v>       0.50000000       0.00000000       0.25000000 </v>
    <v>       0.00000000       0.50000000       0.25000000 </v>
    <v>       0.50000000       0.50000000       0.25000000 </v>
    <v>       0.25000000       0.25000000       0.25000000 </v>
    <v>      -0.25000000       0.50000000       0.25000000 </v>
    <v>       0.50000000       0.25000000       0.25000000 </v>
    <v>      -0.25000000      -0.25000000       0.25000000 </v>
    <v>       0.25000000       0.50000000       0.25000000 </v>
    <v>       0.50000000      -0.25000000       0.25000000 </v>
    <v>       0.00000000       0.00000000       0.50000000 </v>
    <v>       0.25000000       0.00000000       0.50000000 </v>
    <v>       0.00000000       0.25000000       0.50000000 </v>
    <v>      -0.25000000       0.25000000       0.50000000 </v>
    <v>       0.50000000       0.00000000       0.50000000 </v>
    <v>       0.00000000       0.50000000       0.50000000 </v>
    <v>       0.50000000       0.50000000       0.50000000 </v>
    <v>       0.25000000       0.25000000       0.50000000 </v>
    <v>      -0.25000000       0.50000000       0.50000000 </v>
    <v>       0.50000000       0.25000000       0.50000000 </v>
   </varray>
   <varray name="weights" >
    <v>       0.01562500 </v>
    <v>       0.03125000 </v>
    <v>       0.03125000 </v>
    <v>       0.03125000 </v>
    <v>       0.01562500 </v>
    <v>       0.01562500 </v>
    <v>       0.01562500 </v>
    <v>       0.03125000 </v>
    <v>       0.03125000 </v>
    <v>       0.03125000 </v>
    <v>       0.03125000 </v>
    <v>       0.03125000 </v>
    <v>       0.03125000 </v>
    <v>       0.03125000 </v>
    <v>       0.03125000 </v>
    <v>       0.03125000 </v>
    <v>       0.03125000 </v>
    <v>       0.03125000 </v>
    <v>       0.03125000 </v>
    <v>       0.03125000 </v>
    <v>       0.03125000 </v>
    <v>       0.03125000 </v>
    <v>       0.03125000 </v>
    <v>       0.03125000 </v>
    <v>       0.03125000 </v>
    <v>       0.03125000 </v>
    <v>       0.01562500 </v>
    <v>       0.03125000 </v>
    <v>       0.03125000 </v>
    <v>       0.03125000 </v>
    <v>       0.01562500 </v>
    <v>       0.01562500 </v>
    <v>       0.01562500 </v>
    <v>       0.03125000 </v>
    <v>       0.03125000 </v>
    <v>       0.03125000 </v>
   </varray>
  </kpoints>
  <scstep>
   <time name="total">    2.25    1.78</time>
   <energy>
    <i name="e_fr_energy">     -0.48312441 </i>
    <i name="e_wo_entrp">     -0.48312441 </i>
    <i name="e_0_energy">     -0.48312441 </i>
   </energy>
  </scstep>
  <scstep>
   <time name="total">    2.32    1.84</time>
   <energy>
    <i name="e_fr_energy">     -0.48537145 </i>
    <i name="e_wo_entrp">     -0.48537145 </i>
    <i name="e_0_energy">     -0.48537145 </i>
   </energy>
  </scstep>
  <scstep>
   <time name="total">    2.33    1.86</time>
   <energy>
    <i name="e_fr_energy">     -0.46519351 </i>
    <i name="e_wo_entrp">     -0.46519351 </i>
    <i name="e_0_energy">     -0.46519351 </i>
   </energy>
  </scstep>
  <scstep>
   <time name="total">    2.35    1.87</time>
   <energy>
    <i name="e_fr_energy">     -0.47599909 </i>
    <i name="e_wo_entrp">     -0.47599909 </i>
    <i name="e_0_energy">     -0.47599909 </i>
   </energy>
  </scstep>
  <scstep>
   <time name="total">    2.34    1.86</time>
   <energy>
    <i name="e_fr_energy">     -0.49375139 </i>
    <i name="e_wo_entrp">     -0.49375139 </i>
    <i name="e_0_energy">     -0.49375139 </i>
   </energy>
  </scstep>
  <scstep>
   <time name="total">    2.31    1.83</time>
   <energy>
    <i name="e_fr_energy">     -0.49667812 </i>
    <i name="e_wo_entrp">     -0.49667812 </i>
    <i name="e_0_energy">     -0.49667812 </i>
   </energy>
  </scstep>
  <scstep>
   <time name="total">    2.35    1.87</time>
   <energy>
    <i name="e_fr_energy">     -0.49691430 </i>
    <i name="e_wo_entrp">     -0.49691430 </i>
    <i name="e_0_energy">     -0.49691430 </i>
   </energy>
  </scstep>
  <scstep>
   <time name="total">    2.34    1.87</time>
   <energy>
    <i name="e_fr_energy">     -0.49714707 </i>
    <i name="e_wo_entrp">     -0.49714707 </i>
    <i name="e_0_energy">     -0.49714707 </i>
   </energy>
  </scstep>
  <scstep>
   <time name="total">    2.35    1.87</time>
   <energy>
    <i name="e_fr_energy">     -0.49721077 </i>
    <i name="e_wo_entrp">     -0.49721077 </i>
    <i name="e_0_energy">     -0.49721077 </i>
   </energy>
  </scstep>
  <scstep>
   <time name="total">    2.36    1.88</time>
   <energy>
    <i name="e_fr_energy">     -0.49720591 </i>
    <i name="e_wo_entrp">     -0.49720591 </i>
    <i name="e_0_energy">     -0.49720591 </i>
   </energy>
  </scstep>
  <scstep>
   <time name="total">    2.35    1.87</time>
   <energy>
    <i name="e_fr_energy">     -0.49720695 </i>
    <i name="e_wo_entrp">     -0.49720695 </i>
    <i name="e_0_energy">     -0.49720695 </i>
   </energy>
  </scstep>
  <scstep>
   <time name="total">    2.29    1.81</time>
   <energy>
    <i name="e_fr_energy">     -0.49720690 </i>
    <i name="e_wo_entrp">     -0.49720690 </i>
    <i name="e_0_energy">     -0.49720690 </i>
   </energy>
  </scstep>
  <scstep>
   <time name="total">    2.30    1.81</time>
   <energy>
    <i name="e_fr_energy">     -0.49720690 </i>
    <i name="e_wo_entrp">     -0.49720690 </i>
    <i name="e_0_energy">     -0.49720690 </i>
   </energy>
  </scstep>
  <scstep>
   <time name="total">    2.30    1.82</time>
   <energy>
    <i name="e_fr_energy">     -0.49720683 </i>
    <i name="e_wo_entrp">     -0.49720683 </i>
    <i name="e_0_energy">     -0.49720683 </i>
   </energy>
  </scstep>
  <kpoints>
   <generation param="Gamma">
    <v type="int" name="divisions">       4        4        4 </v>
    <v name="usershift">      0.00000000       0.00000000       0.00000000 </v>
    <v name="genvec1">      0.25000000       0.00000000       0.00000000 </v>
    <v name="genvec2">      0.00000000       0.25000000       0.00000000 </v>
    <v name="genvec3">      0.00000000       0.00000000       0.25000000 </v>
    <v name="shift">      0.00000000       0.00000000       0.00000000 </v>
   </generation>
   <varray name="kpointlist" >
    <v>       0.00000000       0.00000000       0.00000000 </v>
    <v>       0.25000000       0.00000000       0.00000000 </v>
    <v>       0.00000000       0.25000000       0.00000000 </v>
    <v>      -0.25000000       0.25000000       0.00000000 </v>
    <v>       0.50000000       0.00000000       0.00000000 </v>
    <v>       0.00000000       0.50000000       0.00000000 </v>
    <v>       0.50000000       0.50000000       0.00000000 </v>
    <v>       0.25000000       0.25000000       0.00000000 </v>
    <v>      -0.25000000       0.50000000       0.00000000 </v>
    <v>       0.50000000       0.25000000       0.00000000 </v>
    <v>       0.00000000       0.00000000       0.25000000 </v>
    <v>       0.25000000       0.00000000       0.25000000 </v>
    <v>       0.00000000       0.25000000       0.25000000 </v>
    <v>      -0.25000000       0.25000000       0.25000000 </v>
    <v>      -0.25000000       0.00000000       0.25000000 </v>
    <v>       0.00000000      -0.25000000       0.25000000 </v>
    <v>       0.25000000      -0.25000000       0.25000000 </v>
    <v>       0.50000000       0.00000000       0.25000000 </v>
    <v>       0.00000000       0.50000000       0.25000000 </v>
    <v>       0.50000000       0.50000000       0.25000000 </v>
    <v>       0.25000000       0.25000000       0.25000000 </v>
    <v>      -0.25000000       0.50000000       0.25000000 </v>
    <v>       0.50000000       0.25000000       0.25000000 </v>
    <v>      -0.25000000      -0.25000000       0.25000000 </v>
    <v>       0.25000000       0.50000000       0.25000000 </v>
    <v>       0.50000000      -0.25000000       0.25000000 </v>
    <v>       0.00000000       0.00000000       0.50000000 </v>
    <v>       0.25000000       0.00000000       0.50000000 </v>
    <v>       0.00000000       0.25000000       0.50000000 </v>
    <v>      -0.25000000       0.25000000       0.50000000 </v>
    <v>       0.50000000       0.00000000       0.50000000 </v>
    <v>       0.00000000       0.50000000       0.50000000 </v>
    <v>       0.50000000       0.50000000       0.50000000 </v>
    <v>       0.25000000       0.25000000       0.50000000 </v>
    <v>      -0.25000000       0.50000000       0.50000000 </v>
    <v>       0.50000000       0.25000000       0.50000000 </v>
   </varray>
   <varray name="weights" >
    <v>       0.01562500 </v>
    <v>       0.03125000 </v>
    <v>       0.03125000 </v>
    <v>       0.03125000 </v>
    <v>       0.01562500 </v>
    <v>       0.01562500 </v>
    <v>       0.01562500 </v>
    <v>       0.03125000 </v>
    <v>       0.03125000 </v>
    <v>       0.03125000 </v>
    <v>       0.03125000 </v>
    <v>       0.03125000 </v>
    <v>       0.03125000 </v>
    <v>       0.03125000 </v>
    <v>       0.03125000 </v>
    <v>       0.03125000 </v>
    <v>       0.03125000 </v>
    <v>       0.03125000 </v>
    <v>       0.03125000 </v>
    <v>       0.03125000 </v>
    <v>       0.03125000 </v>
    <v>       0.03125000 </v>
    <v>       0.03125000 </v>
    <v>       0.03125000 </v>
    <v>       0.03125000 </v>
    <v>       0.03125000 </v>
    <v>       0.01562500 </v>
    <v>       0.03125000 </v>
    <v>       0.03125000 </v>
    <v>       0.03125000 </v>
    <v>       0.01562500 </v>
    <v>       0.01562500 </v>
    <v>       0.01562500 </v>
    <v>       0.03125000 </v>
    <v>       0.03125000 </v>
    <v>       0.03125000 </v>
   </varray>
  </kpoints>
  <scstep>
   <time name="total">    2.24    1.78</time>
   <energy>
    <i name="e_fr_energy">     -0.48316644 </i>
    <i name="e_wo_entrp">     -0.48316644 </i>
    <i name="e_0_energy">     -0.48316644 </i>
   </energy>
  </scstep>
  <scstep>
   <time name="total">    2.32    1.85</time>
   <energy>
    <i name="e_fr_energy">     -0.48536977 </i>
    <i name="e_wo_entrp">     -0.48536977 </i>
    <i name="e_0_energy">     -0.48536977 </i>
   </energy>
  </scstep>
  <scstep>
   <time name="total">    2.33    1.86</time>
   <energy>
    <i name="e_fr_energy">     -0.46516523 </i>
    <i name="e_wo_entrp">     -0.46516523 </i>
    <i name="e_0_energy">     -0.46516523 </i>
   </energy>
  </scstep>
  <scstep>
   <time name="total">    2.34    1.87</time>
   <energy>
    <i name="e_fr_energy">     -0.47602484 </i>
    <i name="e_wo_entrp">     -0.47602484 </i>
    <i name="e_0_energy">     -0.47602484 </i>
   </energy>
  </scstep>
  <scstep>
   <time name="total">    2.33    1.85</time>
   <energy>
    <i name="e_fr_energy">     -0.49376000 </i>
    <i name="e_wo_entrp">     -0.49376000 </i>
    <i name="e_0_energy">     -0.49376000 </i>
   </energy>
  </scstep>
  <scstep>
   <time name="total">    2.31    1.83</time>
   <energy>
    <i name="e_fr_energy">     -0.49667664 </i>
    <i name="e_wo_entrp">     -0.49667664 </i>
    <i name="e_0_energy">     -0.49667664 </i>
   </energy>
  </scstep>
  <scstep>
   <time name="total">    2.35    1.87</time>
   <energy>
    <i name="e_fr_energy">     -0.49692006 </i>
    <i name="e_wo_entrp">     -0.49692006 </i>
    <i name="e_0_energy">     -0.49692006 </i>
   </energy>
  </scstep>
  <scstep>
   <time name="total">    2.35    1.87</time>
   <energy>
    <i name="e_fr_energy">     -0.49714975 </i>
    <i name="e_wo_entrp">     -0.49714975 </i>
    <i name="e_0_energy">     -0.49714975 </i>
   </energy>
  </scstep>
  <scstep>
   <time name="total">    2.36    1.88</time>
   <energy>
    <i name="e_fr_energy">     -0.49721533 </i>
    <i name="e_wo_entrp">     -0.49721533 </i>
    <i name="e_0_energy">     -0.49721533 </i>
   </energy>
  </scstep>
  <scstep>
   <time name="total">    2.37    1.88</time>
   <energy>
    <i name="e_fr_energy">     -0.49721025 </i>
    <i name="e_wo_entrp">     -0.49721025 </i>
    <i name="e_0_energy">     -0.49721025 </i>
   </energy>
  </scstep>
  <scstep>
   <time name="total">    2.36    1.88</time>
   <energy>
    <i name="e_fr_energy">     -0.49721134 </i>
    <i name="e_wo_entrp">     -0.49721134 </i>
    <i name="e_0_energy">     -0.49721134 </i>
   </energy>
  </scstep>
  <scstep>
   <time name="total">    2.29    1.81</time>
   <energy>
    <i name="e_fr_energy">     -0.49721134 </i>
    <i name="e_wo_entrp">     -0.49721134 </i>
    <i name="e_0_energy">     -0.49721134 </i>
   </energy>
  </scstep>
  <scstep>
   <time name="total">    2.29    1.80</time>
   <energy>
    <i name="e_fr_energy">     -0.49721138 </i>
    <i name="e_wo_entrp">     -0.49721138 </i>
    <i name="e_0_energy">     -0.49721138 </i>
   </energy>
  </scstep>
  <scstep>
   <time name="total">    2.29    1.81</time>
   <energy>
    <i name="e_fr_energy">     -0.49721131 </i>
    <i name="e_wo_entrp">     -0.49721131 </i>
    <i name="e_0_energy">     -0.49721131 </i>
   </energy>
  </scstep>
  <kpoints>
   <generation param="Gamma">
    <v type="int" name="divisions">       4        4        4 </v>
    <v name="usershift">      0.00000000       0.00000000       0.00000000 </v>
    <v name="genvec1">      0.25000000       0.00000000       0.00000000 </v>
    <v name="genvec2">      0.00000000       0.25000000       0.00000000 </v>
    <v name="genvec3">      0.00000000       0.00000000       0.25000000 </v>
    <v name="shift">      0.00000000       0.00000000       0.00000000 </v>
   </generation>
   <varray name="kpointlist" >
    <v>       0.00000000       0.00000000       0.00000000 </v>
    <v>       0.25000000       0.00000000       0.00000000 </v>
    <v>       0.50000000       0.00000000       0.00000000 </v>
    <v>       0.25000000       0.25000000       0.00000000 </v>
    <v>       0.00000000       0.00000000       0.25000000 </v>
    <v>       0.25000000       0.00000000       0.25000000 </v>
    <v>       0.00000000       0.25000000       0.25000000 </v>
    <v>       0.50000000       0.00000000       0.25000000 </v>
    <v>       0.25000000       0.25000000       0.25000000 </v>
    <v>      -0.25000000       0.50000000       0.25000000 </v>
    <v>       0.00000000       0.00000000       0.50000000 </v>
    <v>       0.25000000       0.00000000       0.50000000 </v>
    <v>       0.50000000       0.00000000       0.50000000 </v>
    <v>       0.25000000       0.25000000       0.50000000 </v>
   </varray>
   <varray name="weights" >
    <v>       0.01562500 </v>
    <v>       0.09375000 </v>
    <v>       0.04687500 </v>
    <v>       0.09375000 </v>
    <v>       0.03125000 </v>
    <v>       0.09375000 </v>
    <v>       0.09375000 </v>
    <v>       0.09375000 </v>
    <v>       0.09375000 </v>
    <v>       0.09375000 </v>
    <v>       0.01562500 </v>
    <v>       0.09375000 </v>
    <v>       0.04687500 </v>
    <v>       0.09375000 </v>
   </varray>
  </kpoints>
  <scstep>
   <time name="total">    1.23    0.76</time>
   <energy>
    <i name="e_fr_energy">     -0.48761075 </i>
    <i name="e_wo_entrp">     -0.48761075 </i>
    <i name="e_0_energy">     -0.48761075 </i>
   </energy>
  </scstep>
  <scstep>
   <time name="total">    1.26    0.79</time>
   <energy>
    <i name="e_fr_energy">     -0.48965485 </i>
    <i name="e_wo_entrp">     -0.48965485 </i>
    <i name="e_0_energy">     -0.48965485 </i>
   </energy>
  </scstep>
  <scstep>
   <time name="total">    1.27    0.79</time>
   <energy>
    <i name="e_fr_energy">     -0.47442244 </i>
    <i name="e_wo_entrp">     -0.47442244 </i>
    <i name="e_0_energy">     -0.47442244 </i>
   </energy>
  </scstep>
  <scstep>
   <time name="total">    1.27    0.79</time>
   <energy>
    <i name="e_fr_energy">     -0.48762996 </i>
    <i name="e_wo_entrp">     -0.48762996 </i>
    <i name="e_0_energy">     -0.48762996 </i>
   </energy>
  </scstep>
  <scstep>
   <time name="total">    1.26    0.79</time>
   <energy>
    <i name="e_fr_energy">     -0.50387698 </i>
    <i name="e_wo_entrp">     -0.50387698 </i>
    <i name="e_0_energy">     -0.50387698 </i>
   </energy>
  </scstep>
  <scstep>
   <time name="total">    1.25    0.77</time>
   <energy>
    <i name="e_fr_energy">     -0.50671750 </i>
    <i name="e_wo_entrp">     -0.50671750 </i>
    <i name="e_0_energy">     -0.50671750 </i>
   </energy>
  </scstep>
  <scstep>
   <time name="total">    1.27    0.79</time>
   <energy>
    <i name="e_fr_energy">     -0.50696066 </i>
    <i name="e_wo_entrp">     -0.50696066 </i>
    <i name="e_0_energy">     -0.50696066 </i>
   </energy>
  </scstep>
  <scstep>
   <time name="total">    1.26    0.79</time>
   <energy>
    <i name="e_fr_energy">     -0.50722636 </i>
    <i name="e_wo_entrp">     -0.50722636 </i>
    <i name="e_0_energy">     -0.50722636 </i>
   </energy>
  </scstep>
  <scstep>
   <time name="total">    1.27    0.80</time>
   <energy>
    <i name="e_fr_energy">     -0.50724915 </i>
    <i name="e_wo_entrp">     -0.50724915 </i>
    <i name="e_0_energy">     -0.50724915 </i>
   </energy>
  </scstep>
  <scstep>
   <time name="total">    1.28    0.80</time>
   <energy>
    <i name="e_fr_energy">     -0.50725033 </i>
    <i name="e_wo_entrp">     -0.50725033 </i>
    <i name="e_0_energy">     -0.50725033 </i>
   </energy>
  </scstep>
  <scstep>
   <time name="total">    1.28    0.80</time>
   <energy>
    <i name="e_fr_energy">     -0.50724940 </i>
    <i name="e_wo_entrp">     -0.50724940 </i>
    <i name="e_0_energy">     -0.50724940 </i>
   </energy>
  </scstep>
  <scstep>
   <time name="total">    1.23    0.75</time>
   <energy>
    <i name="e_fr_energy">     -0.50724964 </i>
    <i name="e_wo_entrp">     -0.50724964 </i>
    <i name="e_0_energy">     -0.50724964 </i>
   </energy>
  </scstep>
  <scstep>
   <time name="total">    1.25    0.78</time>
   <energy>
    <i name="e_fr_energy">     -0.50724963 </i>
    <i name="e_wo_entrp">     -0.50724963 </i>
    <i name="e_0_energy">     -0.50724963 </i>
   </energy>
  </scstep>
  <scstep>
   <time name="total">    1.22    0.74</time>
   <energy>
    <i name="e_fr_energy">     -0.50724965 </i>
    <i name="e_wo_entrp">     -0.50724965 </i>
    <i name="e_0_energy">     -0.50724965 </i>
   </energy>
  </scstep>
  <kpoints>
   <generation param="Gamma">
    <v type="int" name="divisions">       4        4        4 </v>
    <v name="usershift">      0.00000000       0.00000000       0.00000000 </v>
    <v name="genvec1">      0.25000000       0.00000000       0.00000000 </v>
    <v name="genvec2">      0.00000000       0.25000000       0.00000000 </v>
    <v name="genvec3">      0.00000000       0.00000000       0.25000000 </v>
    <v name="shift">      0.00000000       0.00000000       0.00000000 </v>
   </generation>
   <varray name="kpointlist" >
    <v>       0.00000000       0.00000000       0.00000000 </v>
    <v>       0.25000000       0.00000000       0.00000000 </v>
    <v>       0.50000000       0.00000000       0.00000000 </v>
    <v>       0.25000000       0.25000000       0.00000000 </v>
    <v>       0.00000000       0.00000000       0.25000000 </v>
    <v>       0.25000000       0.00000000       0.25000000 </v>
    <v>       0.00000000       0.25000000       0.25000000 </v>
    <v>       0.50000000       0.00000000       0.25000000 </v>
    <v>       0.25000000       0.25000000       0.25000000 </v>
    <v>      -0.25000000       0.50000000       0.25000000 </v>
    <v>       0.00000000       0.00000000       0.50000000 </v>
    <v>       0.25000000       0.00000000       0.50000000 </v>
    <v>       0.50000000       0.00000000       0.50000000 </v>
    <v>       0.25000000       0.25000000       0.50000000 </v>
   </varray>
   <varray name="weights" >
    <v>       0.01562500 </v>
    <v>       0.09375000 </v>
    <v>       0.04687500 </v>
    <v>       0.09375000 </v>
    <v>       0.03125000 </v>
    <v>       0.09375000 </v>
    <v>       0.09375000 </v>
    <v>       0.09375000 </v>
    <v>       0.09375000 </v>
    <v>       0.09375000 </v>
    <v>       0.01562500 </v>
    <v>       0.09375000 </v>
    <v>       0.04687500 </v>
    <v>       0.09375000 </v>
   </varray>
  </kpoints>
  <varray name="dielectric_dft" >
   <v>       2.48081964      -0.00000062       0.00000000 </v>
   <v>       0.00000062       2.48081964       0.00000000 </v>
   <v>       0.00000000       0.00000000       2.51333956 </v>
  </varray>
  <varray name="epsilon" >
   <v>       2.48081964      -0.00000062       0.00000000 </v>
   <v>       0.00000062       2.48081964       0.00000000 </v>
   <v>       0.00000000       0.00000000       2.51333956 </v>
  </varray>
  <kpoints>
   <generation param="Gamma">
    <v type="int" name="divisions">       4        4        4 </v>
    <v name="usershift">      0.00000000       0.00000000       0.00000000 </v>
    <v name="genvec1">      0.25000000       0.00000000       0.00000000 </v>
    <v name="genvec2">      0.00000000       0.25000000       0.00000000 </v>
    <v name="genvec3">      0.00000000       0.00000000       0.25000000 </v>
    <v name="shift">      0.00000000       0.00000000       0.00000000 </v>
   </generation>
   <varray name="kpointlist" >
    <v>       0.00000000       0.00000000       0.00000000 </v>
    <v>       0.25000000       0.00000000       0.00000000 </v>
    <v>       0.50000000       0.00000000       0.00000000 </v>
    <v>       0.25000000       0.25000000       0.00000000 </v>
    <v>       0.00000000       0.00000000       0.25000000 </v>
    <v>       0.25000000       0.00000000       0.25000000 </v>
    <v>       0.00000000       0.25000000       0.25000000 </v>
    <v>       0.50000000       0.00000000       0.25000000 </v>
    <v>       0.25000000       0.25000000       0.25000000 </v>
    <v>      -0.25000000       0.50000000       0.25000000 </v>
    <v>       0.00000000       0.00000000       0.50000000 </v>
    <v>       0.25000000       0.00000000       0.50000000 </v>
    <v>       0.50000000       0.00000000       0.50000000 </v>
    <v>       0.25000000       0.25000000       0.50000000 </v>
   </varray>
   <varray name="weights" >
    <v>       0.01562500 </v>
    <v>       0.09375000 </v>
    <v>       0.04687500 </v>
    <v>       0.09375000 </v>
    <v>       0.03125000 </v>
    <v>       0.09375000 </v>
    <v>       0.09375000 </v>
    <v>       0.09375000 </v>
    <v>       0.09375000 </v>
    <v>       0.09375000 </v>
    <v>       0.01562500 </v>
    <v>       0.09375000 </v>
    <v>       0.04687500 </v>
    <v>       0.09375000 </v>
   </varray>
  </kpoints>
  <array name="born_charges" >
   <dimension dim="1">ion</dimension>
   <set>
    <v>       2.98054249      -0.00108613      -0.00024325 </v>
    <v>       0.00078962       3.62049306      -0.32133594 </v>
    <v>       0.00057604       0.27802922       3.42535572 </v>
   </set>
   <set>
    <v>       3.46037703       0.27624298       0.27840671 </v>
    <v>       0.27811873       3.14065852       0.16045731 </v>
    <v>      -0.24106838      -0.13851574       3.42535572 </v>
   </set>
   <set>
    <v>       3.46063381      -0.27797048      -0.27816347 </v>
    <v>      -0.27609473       3.14040174       0.16087863 </v>
    <v>       0.24049234      -0.13951347       3.42535572 </v>
   </set>
   <set>
    <v>      -1.31151979      -0.49321887      -0.30983017 </v>
    <v>      -0.43692651      -1.98949351      -0.67845049 </v>
    <v>      -0.24384598      -0.72153268      -1.71275494 </v>
   </set>
   <set>
    <v>      -2.22276484      -0.08918107       0.74247045 </v>
    <v>      -0.03288870      -1.07824846       0.07090444 </v>
    <v>       0.74678862       0.14958952      -1.71275494 </v>
   </set>
   <set>
    <v>      -1.41723532       0.49796139      -0.43264027 </v>
    <v>       0.55425376      -1.88377799       0.60754605 </v>
    <v>      -0.50294264       0.57194315      -1.71275494 </v>
   </set>
   <set>
    <v>      -1.31077187       0.49348472       0.31059685 </v>
    <v>       0.43531660      -1.98925038      -0.67953629 </v>
    <v>       0.24303803      -0.72138268      -1.71260078 </v>
   </set>
   <set>
    <v>      -2.22181352       0.09067354      -0.74379411 </v>
    <v>       0.03250542      -1.07820872       0.07078338 </v>
    <v>      -0.74625474       0.15021423      -1.71260078 </v>
   </set>
   <set>
    <v>      -1.41744798      -0.49690609       0.43319726 </v>
    <v>      -0.55507420      -1.88257427       0.60875290 </v>
    <v>       0.50321671       0.57116845      -1.71260078 </v>
   </set>
  </array>
  <time name="totalsc">  229.06  136.13</time>
  <eigenvalues>
   <array>
    <dimension dim="1">band</dimension>
    <dimension dim="2">kpoint</dimension>
    <dimension dim="3">spin</dimension>
    <field>eigene</field>
    <field>occ</field>
    <set>
     <set comment="spin 1">
      <set comment="kpoint 1">
       <r>  -18.1720    1.0000 </r>
       <r>  -16.6201    1.0000 </r>
       <r>  -16.6201    1.0000 </r>
       <r>  -15.9516    1.0000 </r>
       <r>  -15.9423    1.0000 </r>
       <r>  -15.9423    1.0000 </r>
       <r>   -6.8789    1.0000 </r>
       <r>   -6.8789    1.0000 </r>
       <r>   -4.1466    1.0000 </r>
       <r>   -4.0639    1.0000 </r>
       <r>   -3.9112    1.0000 </r>
       <r>   -3.9112    1.0000 </r>
       <r>   -1.6856    1.0000 </r>
       <r>   -1.6856    1.0000 </r>
       <r>   -1.3748    1.0000 </r>
       <r>   -1.1507    1.0000 </r>
       <r>   -0.1554    1.0000 </r>
       <r>   -0.1554    1.0000 </r>
       <r>   -0.0980    1.0000 </r>
       <r>    0.2613    1.0000 </r>
       <r>    0.2613    1.0000 </r>
       <r>    0.4586    1.0000 </r>
       <r>    1.0042    1.0000 </r>
       <r>    1.0042    1.0000 </r>
       <r>    7.3235    0.0000 </r>
       <r>   10.6085    0.0000 </r>
       <r>   10.6085    0.0000 </r>
       <r>   11.2366    0.0000 </r>
       <r>   11.2366    0.0000 </r>
      </set>
      <set comment="kpoint 2">
       <r>  -17.9880    1.0000 </r>
       <r>  -16.8197    1.0000 </r>
       <r>  -16.5937    1.0000 </r>
       <r>  -16.0189    1.0000 </r>
       <r>  -15.9757    1.0000 </r>
       <r>  -15.9422    1.0000 </r>
       <r>   -6.9569    1.0000 </r>
       <r>   -6.5092    1.0000 </r>
       <r>   -4.2176    1.0000 </r>
       <r>   -4.1542    1.0000 </r>
       <r>   -4.0326    1.0000 </r>
       <r>   -3.6189    1.0000 </r>
       <r>   -1.8729    1.0000 </r>
       <r>   -1.5567    1.0000 </r>
       <r>   -1.3477    1.0000 </r>
       <r>   -0.8969    1.0000 </r>
       <r>   -0.6972    1.0000 </r>
       <r>   -0.2392    1.0000 </r>
       <r>   -0.1600    1.0000 </r>
       <r>    0.1793    1.0000 </r>
       <r>    0.2769    1.0000 </r>
       <r>    0.4210    1.0000 </r>
       <r>    1.0535    1.0000 </r>
       <r>    1.1416    1.0000 </r>
       <r>    8.2330    0.0000 </r>
       <r>   10.6697    0.0000 </r>
       <r>   10.7200    0.0000 </r>
       <r>   11.2073    0.0000 </r>
       <r>   11.4827    0.0000 </r>
      </set>
      <set comment="kpoint 3">
       <r>  -17.6650    1.0000 </r>
       <r>  -17.1820    1.0000 </r>
       <r>  -16.5648    1.0000 </r>
       <r>  -16.0451    1.0000 </r>
       <r>  -16.0008    1.0000 </r>
       <r>  -15.9680    1.0000 </r>
       <r>   -7.0305    1.0000 </r>
       <r>   -6.0439    1.0000 </r>
       <r>   -4.5561    1.0000 </r>
       <r>   -4.0962    1.0000 </r>
       <r>   -4.0890    1.0000 </r>
       <r>   -3.2818    1.0000 </r>
       <r>   -1.8239    1.0000 </r>
       <r>   -1.6227    1.0000 </r>
       <r>   -1.4348    1.0000 </r>
       <r>   -1.0012    1.0000 </r>
       <r>   -0.7924    1.0000 </r>
       <r>   -0.4795    1.0000 </r>
       <r>   -0.2878    1.0000 </r>
       <r>    0.1955    1.0000 </r>
       <r>    0.2818    1.0000 </r>
       <r>    0.5595    1.0000 </r>
       <r>    1.0150    1.0000 </r>
       <r>    1.2412    1.0000 </r>
       <r>    9.6352    0.0000 </r>
       <r>   10.3716    0.0000 </r>
       <r>   10.9664    0.0000 </r>
       <r>   10.9886    0.0000 </r>
       <r>   11.9989    0.0000 </r>
      </set>
      <set comment="kpoint 4">
       <r>  -17.6755    1.0000 </r>
       <r>  -17.1516    1.0000 </r>
       <r>  -16.5957    1.0000 </r>
       <r>  -16.0405    1.0000 </r>
       <r>  -15.9985    1.0000 </r>
       <r>  -15.9647    1.0000 </r>
       <r>   -7.0589    1.0000 </r>
       <r>   -5.9058    1.0000 </r>
       <r>   -4.8494    1.0000 </r>
       <r>   -4.0740    1.0000 </r>
       <r>   -3.9327    1.0000 </r>
       <r>   -3.2896    1.0000 </r>
       <r>   -1.7833    1.0000 </r>
       <r>   -1.6281    1.0000 </r>
       <r>   -1.4651    1.0000 </r>
       <r>   -0.8973    1.0000 </r>
       <r>   -0.8478    1.0000 </r>
       <r>   -0.4277    1.0000 </r>
       <r>   -0.2437    1.0000 </r>
       <r>   -0.0086    1.0000 </r>
       <r>    0.2524    1.0000 </r>
       <r>    0.6679    1.0000 </r>
       <r>    0.9803    1.0000 </r>
       <r>    1.2629    1.0000 </r>
       <r>    9.4762    0.0000 </r>
       <r>   10.7358    0.0000 </r>
       <r>   10.7718    0.0000 </r>
       <r>   11.4411    0.0000 </r>
       <r>   11.5796    0.0000 </r>
      </set>
      <set comment="kpoint 5">
       <r>  -18.0467    1.0000 </r>
       <r>  -17.1800    1.0000 </r>
       <r>  -16.1696    1.0000 </r>
       <r>  -15.9556    1.0000 </r>
       <r>  -15.9536    1.0000 </r>
       <r>  -15.9227    1.0000 </r>
       <r>   -7.6522    1.0000 </r>
       <r>   -5.8673    1.0000 </r>
       <r>   -4.3682    1.0000 </r>
       <r>   -4.1815    1.0000 </r>
       <r>   -4.1301    1.0000 </r>
       <r>   -3.5528    1.0000 </r>
       <r>   -1.7666    1.0000 </r>
       <r>   -1.4402    1.0000 </r>
       <r>   -1.3093    1.0000 </r>
       <r>   -0.9473    1.0000 </r>
       <r>   -0.4233    1.0000 </r>
       <r>   -0.2927    1.0000 </r>
       <r>   -0.1653    1.0000 </r>
       <r>   -0.1614    1.0000 </r>
       <r>    0.1777    1.0000 </r>
       <r>    0.6299    1.0000 </r>
       <r>    1.0940    1.0000 </r>
       <r>    1.1786    1.0000 </r>
       <r>    7.9359    0.0000 </r>
       <r>   10.4178    0.0000 </r>
       <r>   10.6311    0.0000 </r>
       <r>   10.6443    0.0000 </r>
       <r>   11.6494    0.0000 </r>
      </set>
      <set comment="kpoint 6">
       <r>  -17.8795    1.0000 </r>
       <r>  -17.1561    1.0000 </r>
       <r>  -16.3550    1.0000 </r>
       <r>  -16.0143    1.0000 </r>
       <r>  -15.9924    1.0000 </r>
       <r>  -15.9404    1.0000 </r>
       <r>   -7.3279    1.0000 </r>
       <r>   -5.9249    1.0000 </r>
       <r>   -4.6326    1.0000 </r>
       <r>   -4.0961    1.0000 </r>
       <r>   -3.8304    1.0000 </r>
       <r>   -3.6546    1.0000 </r>
       <r>   -1.9391    1.0000 </r>
       <r>   -1.4329    1.0000 </r>
       <r>   -1.3054    1.0000 </r>
       <r>   -0.9654    1.0000 </r>
       <r>   -0.6437    1.0000 </r>
       <r>   -0.3021    1.0000 </r>
       <r>   -0.1670    1.0000 </r>
       <r>    0.0580    1.0000 </r>
       <r>    0.3182    1.0000 </r>
       <r>    0.4879    1.0000 </r>
       <r>    1.0121    1.0000 </r>
       <r>    1.1509    1.0000 </r>
       <r>    8.7073    0.0000 </r>
       <r>   10.4520    0.0000 </r>
       <r>   10.7348    0.0000 </r>
       <r>   10.9638    0.0000 </r>
       <r>   11.6991    0.0000 </r>
      </set>
      <set comment="kpoint 7">
       <r>  -17.8823    1.0000 </r>
       <r>  -17.1427    1.0000 </r>
       <r>  -16.3863    1.0000 </r>
       <r>  -16.0151    1.0000 </r>
       <r>  -15.9595    1.0000 </r>
       <r>  -15.9515    1.0000 </r>
       <r>   -7.3301    1.0000 </r>
       <r>   -5.9298    1.0000 </r>
       <r>   -4.6333    1.0000 </r>
       <r>   -4.1189    1.0000 </r>
       <r>   -3.8572    1.0000 </r>
       <r>   -3.5702    1.0000 </r>
       <r>   -1.8926    1.0000 </r>
       <r>   -1.3904    1.0000 </r>
       <r>   -1.3601    1.0000 </r>
       <r>   -1.1093    1.0000 </r>
       <r>   -0.6941    1.0000 </r>
       <r>   -0.2004    1.0000 </r>
       <r>   -0.1045    1.0000 </r>
       <r>    0.0408    1.0000 </r>
       <r>    0.3868    1.0000 </r>
       <r>    0.4107    1.0000 </r>
       <r>    0.9059    1.0000 </r>
       <r>    1.2524    1.0000 </r>
       <r>    8.6702    0.0000 </r>
       <r>   10.5744    0.0000 </r>
       <r>   10.8872    0.0000 </r>
       <r>   11.0276    0.0000 </r>
       <r>   11.5534    0.0000 </r>
      </set>
      <set comment="kpoint 8">
       <r>  -17.6282    1.0000 </r>
       <r>  -17.1623    1.0000 </r>
       <r>  -16.6338    1.0000 </r>
       <r>  -16.0519    1.0000 </r>
       <r>  -16.0073    1.0000 </r>
       <r>  -15.9589    1.0000 </r>
       <r>   -6.9564    1.0000 </r>
       <r>   -5.9804    1.0000 </r>
       <r>   -4.8533    1.0000 </r>
       <r>   -4.0802    1.0000 </r>
       <r>   -3.7934    1.0000 </r>
       <r>   -3.4626    1.0000 </r>
       <r>   -1.8854    1.0000 </r>
       <r>   -1.7936    1.0000 </r>
       <r>   -1.2421    1.0000 </r>
       <r>   -1.0499    1.0000 </r>
       <r>   -0.5804    1.0000 </r>
       <r>   -0.4813    1.0000 </r>
       <r>   -0.1350    1.0000 </r>
[...]
       <r>    1.2156    1.0000 </r>
       <r>    9.3085    0.0000 </r>
       <r>    9.3085    0.0000 </r>
       <r>   10.4336    0.0000 </r>
       <r>   10.9941    0.0000 </r>
       <r>   10.9941    0.0000 </r>
      </set>
      <set comment="kpoint 12">
       <r>  -17.6424    1.0000 </r>
       <r>  -17.5018    1.0000 </r>
       <r>  -16.2496    1.0000 </r>
       <r>  -16.0272    1.0000 </r>
       <r>  -15.9734    1.0000 </r>
       <r>  -15.9427    1.0000 </r>
       <r>   -7.5168    1.0000 </r>
       <r>   -5.3543    1.0000 </r>
       <r>   -5.0127    1.0000 </r>
       <r>   -4.0964    1.0000 </r>
       <r>   -3.9726    1.0000 </r>
       <r>   -3.4571    1.0000 </r>
       <r>   -1.7490    1.0000 </r>
       <r>   -1.7305    1.0000 </r>
       <r>   -1.2092    1.0000 </r>
       <r>   -0.9365    1.0000 </r>
       <r>   -0.7530    1.0000 </r>
       <r>   -0.2542    1.0000 </r>
       <r>   -0.1573    1.0000 </r>
       <r>    0.0431    1.0000 </r>
       <r>    0.1863    1.0000 </r>
       <r>    0.7963    1.0000 </r>
       <r>    0.8304    1.0000 </r>
       <r>    1.1410    1.0000 </r>
       <r>    9.6763    0.0000 </r>
       <r>    9.8378    0.0000 </r>
       <r>   10.7237    0.0000 </r>
       <r>   11.0287    0.0000 </r>
       <r>   11.3862    0.0000 </r>
      </set>
      <set comment="kpoint 13">
       <r>  -17.5872    1.0000 </r>
       <r>  -17.1414    1.0000 </r>
       <r>  -16.7050    1.0000 </r>
       <r>  -16.0736    1.0000 </r>
       <r>  -15.9932    1.0000 </r>
       <r>  -15.9590    1.0000 </r>
       <r>   -6.8760    1.0000 </r>
       <r>   -5.9141    1.0000 </r>
       <r>   -5.0478    1.0000 </r>
       <r>   -3.9970    1.0000 </r>
       <r>   -3.7051    1.0000 </r>
       <r>   -3.6149    1.0000 </r>
       <r>   -1.9309    1.0000 </r>
       <r>   -1.9232    1.0000 </r>
       <r>   -1.1444    1.0000 </r>
       <r>   -0.8283    1.0000 </r>
       <r>   -0.7466    1.0000 </r>
       <r>   -0.2749    1.0000 </r>
       <r>    0.0229    1.0000 </r>
       <r>    0.1890    1.0000 </r>
       <r>    0.3979    1.0000 </r>
       <r>    0.4039    1.0000 </r>
       <r>    0.6988    1.0000 </r>
       <r>    1.1194    1.0000 </r>
       <r>   10.2273    0.0000 </r>
       <r>   10.7252    0.0000 </r>
       <r>   11.0146    0.0000 </r>
       <r>   11.2001    0.0000 </r>
       <r>   11.5388    0.0000 </r>
      </set>
      <set comment="kpoint 14">
       <r>  -17.5752    1.0000 </r>
       <r>  -17.1860    1.0000 </r>
       <r>  -16.6524    1.0000 </r>
       <r>  -16.0617    1.0000 </r>
       <r>  -15.9929    1.0000 </r>
       <r>  -15.9926    1.0000 </r>
       <r>   -6.8566    1.0000 </r>
       <r>   -5.8701    1.0000 </r>
       <r>   -5.1562    1.0000 </r>
       <r>   -3.8978    1.0000 </r>
       <r>   -3.7950    1.0000 </r>
       <r>   -3.6155    1.0000 </r>
       <r>   -1.9739    1.0000 </r>
       <r>   -1.7469    1.0000 </r>
       <r>   -1.2647    1.0000 </r>
       <r>   -0.9003    1.0000 </r>
       <r>   -0.6224    1.0000 </r>
       <r>   -0.4222    1.0000 </r>
       <r>    0.1493    1.0000 </r>
       <r>    0.2557    1.0000 </r>
       <r>    0.3284    1.0000 </r>
       <r>    0.5712    1.0000 </r>
       <r>    0.7164    1.0000 </r>
       <r>    0.9241    1.0000 </r>
       <r>   10.1771    0.0000 </r>
       <r>   10.6510    0.0000 </r>
       <r>   10.9632    0.0000 </r>
       <r>   11.3049    0.0000 </r>
       <r>   11.7227    0.0000 </r>
      </set>
     </set>
    </set>
   </array>
  </eigenvalues>
  <separator name="orbital magnetization" >
   <v name="MAGDIPOLOUT">      0.00000000      0.00000000      0.00000000</v>
  </separator>
  <dos>
   <i name="efermi">      1.78446905 </i>
   <total>
    <array>
     <dimension dim="1">gridpoints</dimension>
     <dimension dim="2">spin</dimension>
     <field>energy</field>
     <field>total</field>
     <field>integrated</field>
     <set>
      <set comment="spin 1">
       <r>   -19.6805     0.0000     0.0000 </r>
       <r>   -19.5699     0.0000     0.0000 </r>
       <r>   -19.4592     0.0000     0.0000 </r>
       <r>   -19.3486     0.0000     0.0000 </r>
       <r>   -19.2380     0.0000     0.0000 </r>
       <r>   -19.1274     0.0000     0.0000 </r>
       <r>   -19.0167     0.0000     0.0000 </r>
       <r>   -18.9061     0.0000     0.0000 </r>
       <r>   -18.7955     0.0000     0.0000 </r>
       <r>   -18.6849     0.0000     0.0000 </r>
       <r>   -18.5742     0.0000     0.0000 </r>
       <r>   -18.4636     0.0000     0.0000 </r>
       <r>   -18.3530     0.0015     0.0002 </r>
       <r>   -18.2424     0.0455     0.0052 </r>
       <r>   -18.1317     0.2561     0.0335 </r>
       <r>   -18.0211     0.9593     0.1396 </r>
       <r>   -17.9105     2.1805     0.3809 </r>
       <r>   -17.7998     2.2490     0.6297 </r>
       <r>   -17.6892     3.1560     0.9788 </r>
       <r>   -17.5786     6.7082     1.7209 </r>
       <r>   -17.4680     3.7421     2.1349 </r>
       <r>   -17.3573     0.7676     2.2198 </r>
       <r>   -17.2467     1.6673     2.4043 </r>
       <r>   -17.1361     7.3336     3.2155 </r>
       <r>   -17.0255     4.7016     3.7357 </r>
       <r>   -16.9148     0.5608     3.7977 </r>
       <r>   -16.8042     0.9819     3.9063 </r>
       <r>   -16.6936     2.7462     4.2101 </r>
       <r>   -16.5830     6.4599     4.9248 </r>
       <r>   -16.4723     3.7474     5.3393 </r>
       <r>   -16.3617     1.9947     5.5600 </r>
       <r>   -16.2511     2.2038     5.8038 </r>
       <r>   -16.1405     3.0148     6.1373 </r>
       <r>   -16.0298    16.1019     7.9186 </r>
       <r>   -15.9192    27.1253    10.9194 </r>
       <r>   -15.8086     9.2322    11.9407 </r>
       <r>   -15.6979     0.5318    11.9995 </r>
       <r>   -15.5873     0.0042    12.0000 </r>
       <r>   -15.4767     0.0000    12.0000 </r>
       <r>   -15.3661     0.0000    12.0000 </r>
       <r>   -15.2554     0.0000    12.0000 </r>
       <r>   -15.1448     0.0000    12.0000 </r>
       <r>   -15.0342     0.0000    12.0000 </r>
       <r>   -14.9236     0.0000    12.0000 </r>
       <r>   -14.8129     0.0000    12.0000 </r>
       <r>   -14.7023     0.0000    12.0000 </r>
       <r>   -14.5917     0.0000    12.0000 </r>
       <r>   -14.4811     0.0000    12.0000 </r>
       <r>   -14.3704     0.0000    12.0000 </r>
       <r>   -14.2598     0.0000    12.0000 </r>
       <r>   -14.1492     0.0000    12.0000 </r>
       <r>   -14.0386     0.0000    12.0000 </r>
       <r>   -13.9279     0.0000    12.0000 </r>
       <r>   -13.8173     0.0000    12.0000 </r>
       <r>   -13.7067     0.0000    12.0000 </r>
       <r>   -13.5960     0.0000    12.0000 </r>
       <r>   -13.4854     0.0000    12.0000 </r>
       <r>   -13.3748     0.0000    12.0000 </r>
       <r>   -13.2642     0.0000    12.0000 </r>
       <r>   -13.1535     0.0000    12.0000 </r>
       <r>   -13.0429     0.0000    12.0000 </r>
       <r>   -12.9323     0.0000    12.0000 </r>
       <r>   -12.8217     0.0000    12.0000 </r>
       <r>   -12.7110     0.0000    12.0000 </r>
       <r>   -12.6004     0.0000    12.0000 </r>
       <r>   -12.4898     0.0000    12.0000 </r>
       <r>   -12.3792     0.0000    12.0000 </r>
       <r>   -12.2685     0.0000    12.0000 </r>
       <r>   -12.1579     0.0000    12.0000 </r>
       <r>   -12.0473     0.0000    12.0000 </r>
       <r>   -11.9367     0.0000    12.0000 </r>
       <r>   -11.8260     0.0000    12.0000 </r>
       <r>   -11.7154     0.0000    12.0000 </r>
       <r>   -11.6048     0.0000    12.0000 </r>
       <r>   -11.4941     0.0000    12.0000 </r>
       <r>   -11.3835     0.0000    12.0000 </r>
       <r>   -11.2729     0.0000    12.0000 </r>
       <r>   -11.1623     0.0000    12.0000 </r>
       <r>   -11.0516     0.0000    12.0000 </r>
       <r>   -10.9410     0.0000    12.0000 </r>
       <r>   -10.8304     0.0000    12.0000 </r>
       <r>   -10.7198     0.0000    12.0000 </r>
       <r>   -10.6091     0.0000    12.0000 </r>
       <r>   -10.4985     0.0000    12.0000 </r>
       <r>   -10.3879     0.0000    12.0000 </r>
       <r>   -10.2773     0.0000    12.0000 </r>
       <r>   -10.1666     0.0000    12.0000 </r>
       <r>   -10.0560     0.0000    12.0000 </r>
       <r>    -9.9454     0.0000    12.0000 </r>
       <r>    -9.8348     0.0000    12.0000 </r>
       <r>    -9.7241     0.0000    12.0000 </r>
       <r>    -9.6135     0.0000    12.0000 </r>
       <r>    -9.5029     0.0000    12.0000 </r>
       <r>    -9.3922     0.0000    12.0000 </r>
       <r>    -9.2816     0.0000    12.0000 </r>
       <r>    -9.1710     0.0000    12.0000 </r>
       <r>    -9.0604     0.0000    12.0000 </r>
       <r>    -8.9497     0.0000    12.0000 </r>
       <r>    -8.8391     0.0000    12.0000 </r>
       <r>    -8.7285     0.0000    12.0000 </r>
       <r>    -8.6179     0.0000    12.0000 </r>
       <r>    -8.5072     0.0000    12.0000 </r>
       <r>    -8.3966     0.0000    12.0000 </r>
       <r>    -8.2860     0.0000    12.0000 </r>
       <r>    -8.1754     0.0001    12.0000 </r>
       <r>    -8.0647     0.0117    12.0013 </r>
       <r>    -7.9541     0.1111    12.0136 </r>
       <r>    -7.8435     0.1387    12.0289 </r>
       <r>    -7.7329     0.0940    12.0393 </r>
       <r>    -7.6222     0.4173    12.0855 </r>
       <r>    -7.5116     0.9753    12.1934 </r>
       <r>    -7.4010     1.2320    12.3297 </r>
       <r>    -7.2903     1.9615    12.5467 </r>
       <r>    -7.1797     1.0271    12.6603 </r>
       <r>    -7.0691     1.3945    12.8146 </r>
       <r>    -6.9585     4.6258    13.3263 </r>
       <r>    -6.8478     4.7457    13.8513 </r>
       <r>    -6.7372     1.5109    14.0185 </r>
       <r>    -6.6266     0.1964    14.0402 </r>
       <r>    -6.5160     0.7019    14.1178 </r>
       <r>    -6.4053     0.7919    14.2054 </r>
       <r>    -6.2947     0.1184    14.2185 </r>
       <r>    -6.1841     0.0260    14.2214 </r>
       <r>    -6.0735     0.5279    14.2798 </r>
       <r>    -5.9628     3.4288    14.6591 </r>
       <r>    -5.8522     6.9587    15.4290 </r>
       <r>    -5.7416     2.9803    15.7587 </r>
       <r>    -5.6310     0.2025    15.7811 </r>
       <r>    -5.5203     0.0176    15.7830 </r>
       <r>    -5.4097     0.3513    15.8219 </r>
       <r>    -5.2991     0.9959    15.9321 </r>
       <r>    -5.1884     0.9263    16.0345 </r>
       <r>    -5.0778     2.1949    16.2773 </r>
       <r>    -4.9672     3.8980    16.7086 </r>
       <r>    -4.8566     2.9750    17.0377 </r>
       <r>    -4.7459     1.8763    17.2452 </r>
       <r>    -4.6353     1.8008    17.4444 </r>
       <r>    -4.5247     1.9959    17.6652 </r>
       <r>    -4.4141     0.6208    17.7339 </r>
       <r>    -4.3034     0.7485    17.8167 </r>
       <r>    -4.1928     3.0867    18.1582 </r>
       <r>    -4.0822     8.8651    19.1389 </r>
       <r>    -3.9716     9.6833    20.2101 </r>
       <r>    -3.8609     6.6558    20.9464 </r>
       <r>    -3.7503     6.7697    21.6953 </r>
       <r>    -3.6397     5.6629    22.3218 </r>
       <r>    -3.5291     5.6948    22.9518 </r>
       <r>    -3.4184     5.0909    23.5150 </r>
       <r>    -3.3078     2.6666    23.8100 </r>
       <r>    -3.1972     1.4535    23.9708 </r>
       <r>    -3.0865     0.2582    23.9993 </r>
       <r>    -2.9759     0.0059    24.0000 </r>
       <r>    -2.8653     0.0000    24.0000 </r>
       <r>    -2.7547     0.0000    24.0000 </r>
       <r>    -2.6440     0.0000    24.0000 </r>
       <r>    -2.5334     0.0000    24.0000 </r>
       <r>    -2.4228     0.0000    24.0000 </r>
       <r>    -2.3122     0.0000    24.0000 </r>
       <r>    -2.2015     0.0015    24.0002 </r>
       <r>    -2.0909     0.1622    24.0181 </r>
       <r>    -1.9803     2.6232    24.3083 </r>
       <r>    -1.8697     7.9522    25.1880 </r>
       <r>    -1.7590     8.1325    26.0877 </r>
       <r>    -1.6484     6.8215    26.8423 </r>
       <r>    -1.5378     5.3475    27.4339 </r>
       <r>    -1.4272     6.3614    28.1376 </r>
       <r>    -1.3165     8.4985    29.0778 </r>
       <r>    -1.2059     5.9489    29.7359 </r>
       <r>    -1.0953     3.8904    30.1663 </r>
       <r>    -0.9846     4.8448    30.7023 </r>
       <r>    -0.8740     8.3915    31.6306 </r>
       <r>    -0.7634     6.9412    32.3985 </r>
       <r>    -0.6528     7.3746    33.2143 </r>
       <r>    -0.5421     6.3274    33.9143 </r>
       <r>    -0.4315     6.2593    34.6067 </r>
       <r>    -0.3209     5.9528    35.2652 </r>
       <r>    -0.2103     8.0480    36.1556 </r>
       <r>    -0.0996     9.8421    37.2444 </r>
       <r>     0.0110     8.1704    38.1482 </r>
       <r>     0.1216     8.9397    39.1372 </r>
       <r>     0.2322     9.4914    40.1872 </r>
       <r>     0.3429    10.6967    41.3705 </r>
       <r>     0.4535     8.7482    42.3383 </r>
       <r>     0.5641     5.7936    42.9792 </r>
       <r>     0.6747     6.2844    43.6744 </r>
       <r>     0.7854     5.2738    44.2579 </r>
       <r>     0.8960     6.6528    44.9938 </r>
       <r>     1.0066     6.7054    45.7356 </r>
       <r>     1.1173     7.8260    46.6014 </r>
       <r>     1.2279     8.3045    47.5201 </r>
       <r>     1.3385     3.7785    47.9381 </r>
       <r>     1.4491     0.5461    47.9985 </r>
       <r>     1.5598     0.0134    48.0000 </r>
       <r>     1.6704     0.0000    48.0000 </r>
       <r>     1.7810     0.0000    48.0000 </r>
       <r>     1.8916     0.0000    48.0000 </r>
       <r>     2.0023     0.0000    48.0000 </r>
       <r>     2.1129     0.0000    48.0000 </r>
       <r>     2.2235     0.0000    48.0000 </r>
       <r>     2.3341     0.0000    48.0000 </r>
       <r>     2.4448     0.0000    48.0000 </r>
       <r>     2.5554     0.0000    48.0000 </r>
       <r>     2.6660     0.0000    48.0000 </r>
       <r>     2.7766     0.0000    48.0000 </r>
       <r>     2.8873     0.0000    48.0000 </r>
       <r>     2.9979     0.0000    48.0000 </r>
       <r>     3.1085     0.0000    48.0000 </r>
       <r>     3.2192     0.0000    48.0000 </r>
       <r>     3.3298     0.0000    48.0000 </r>
       <r>     3.4404     0.0000    48.0000 </r>
       <r>     3.5510     0.0000    48.0000 </r>
       <r>     3.6617     0.0000    48.0000 </r>
       <r>     3.7723     0.0000    48.0000 </r>
       <r>     3.8829     0.0000    48.0000 </r>
       <r>     3.9935     0.0000    48.0000 </r>
       <r>     4.1042     0.0000    48.0000 </r>
       <r>     4.2148     0.0000    48.0000 </r>
       <r>     4.3254     0.0000    48.0000 </r>
       <r>     4.4360     0.0000    48.0000 </r>
       <r>     4.5467     0.0000    48.0000 </r>
       <r>     4.6573     0.0000    48.0000 </r>
       <r>     4.7679     0.0000    48.0000 </r>
       <r>     4.8785     0.0000    48.0000 </r>
       <r>     4.9892     0.0000    48.0000 </r>
       <r>     5.0998     0.0000    48.0000 </r>
       <r>     5.2104     0.0000    48.0000 </r>
       <r>     5.3211     0.0000    48.0000 </r>
       <r>     5.4317     0.0000    48.0000 </r>
       <r>     5.5423     0.0000    48.0000 </r>
       <r>     5.6529     0.0000    48.0000 </r>
       <r>     5.7636     0.0000    48.0000 </r>
       <r>     5.8742     0.0000    48.0000 </r>
       <r>     5.9848     0.0000    48.0000 </r>
       <r>     6.0954     0.0000    48.0000 </r>
       <r>     6.2061     0.0000    48.0000 </r>
       <r>     6.3167     0.0000    48.0000 </r>
       <r>     6.4273     0.0000    48.0000 </r>
       <r>     6.5379     0.0000    48.0000 </r>
       <r>     6.6486     0.0000    48.0000 </r>
       <r>     6.7592     0.0000    48.0000 </r>
       <r>     6.8698     0.0000    48.0000 </r>
       <r>     6.9804     0.0000    48.0000 </r>
       <r>     7.0911     0.0001    48.0000 </r>
       <r>     7.2017     0.0119    48.0013 </r>
       <r>     7.3123     0.1115    48.0137 </r>
       <r>     7.4230     0.1364    48.0288 </r>
       <r>     7.5336     0.0221    48.0312 </r>
       <r>     7.6442     0.0004    48.0313 </r>
       <r>     7.7548     0.0029    48.0316 </r>
       <r>     7.8655     0.0872    48.0412 </r>
       <r>     7.9761     0.3141    48.0760 </r>
       <r>     8.0867     0.1841    48.0963 </r>
       <r>     8.1973     0.4969    48.1513 </r>
       <r>     8.3080     0.9297    48.2541 </r>
       <r>     8.4186     0.2380    48.2805 </r>
       <r>     8.5292     0.0561    48.2867 </r>
       <r>     8.6398     0.8048    48.3757 </r>
       <r>     8.7505     1.8597    48.5814 </r>
       <r>     8.8611     0.6452    48.6528 </r>
       <r>     8.9717     0.0308    48.6562 </r>
       <r>     9.0823     0.0006    48.6563 </r>
       <r>     9.1930     0.0285    48.6595 </r>
       <r>     9.3036     0.2503    48.6871 </r>
       <r>     9.4142     0.5712    48.7503 </r>
       <r>     9.5249     1.0735    48.8691 </r>
       <r>     9.6355     1.4436    49.0288 </r>
       <r>     9.7461     3.0606    49.3674 </r>
       <r>     9.8567     2.9814    49.6972 </r>
       <r>     9.9674     1.7597    49.8919 </r>
       <r>    10.0780     0.5483    49.9525 </r>
       <r>    10.1886     1.0743    50.0714 </r>
       <r>    10.2992     1.3734    50.2233 </r>
       <r>    10.4099     2.0485    50.4499 </r>
       <r>    10.5205     3.1195    50.7950 </r>
       <r>    10.6311     5.0453    51.3532 </r>
       <r>    10.7417     9.0528    52.3546 </r>
       <r>    10.8524     6.2104    53.0417 </r>
       <r>    10.9630     6.5139    53.7623 </r>
       <r>    11.0736     7.3777    54.5785 </r>
       <r>    11.1842     3.0270    54.9133 </r>
       <r>    11.2949     3.6578    55.3180 </r>
       <r>    11.4055     5.6527    55.9433 </r>
       <r>    11.5161     6.3243    56.6430 </r>
       <r>    11.6268     5.3599    57.2359 </r>
       <r>    11.7374     3.3644    57.6081 </r>
       <r>    11.8480     2.1718    57.8483 </r>
       <r>    11.9586     0.7406    57.9303 </r>
       <r>    12.0693     0.4948    57.9850 </r>
       <r>    12.1799     0.1311    57.9995 </r>
       <r>    12.2905     0.0044    58.0000 </r>
       <r>    12.4011     0.0000    58.0000 </r>
       <r>    12.5118     0.0000    58.0000 </r>
       <r>    12.6224     0.0000    58.0000 </r>
       <r>    12.7330     0.0000    58.0000 </r>
       <r>    12.8436     0.0000    58.0000 </r>
       <r>    12.9543     0.0000    58.0000 </r>
       <r>    13.0649     0.0000    58.0000 </r>
       <r>    13.1755     0.0000    58.0000 </r>
       <r>    13.2861     0.0000    58.0000 </r>
       <r>    13.3968     0.0000    58.0000 </r>
       <r>    13.5074     0.0000    58.0000 </r>
      </set>
     </set>
    </array>
   </total>
  </dos>
 </calculation>
 <structure name="finalpos" >
  <crystal>
   <varray name="basis" >
    <v>       4.87342988       0.00000000       0.00000000 </v>
    <v>      -2.43671494       4.22051408       0.00000000 </v>
    <v>       0.00000000       0.00000000       5.37418982 </v>
   </varray>
   <i name="volume">    110.53837516 </i>
   <varray name="rec_basis" >
    <v>       0.20519429       0.11846898      -0.00000000 </v>
    <v>       0.00000000       0.23693796       0.00000000 </v>
    <v>       0.00000000      -0.00000000       0.18607456 </v>
   </varray>
  </crystal>
  <varray name="positions" >
   <v>       0.46465927       0.99995265       0.66657238 </v>
   <v>       0.00004735       0.46470663       0.33323904 </v>
   <v>       0.53529337       0.53534073       0.99990571 </v>
   <v>       0.13563911       0.72414422       0.55427153 </v>
   <v>       0.27585578       0.41149489       0.22093820 </v>
   <v>       0.58850511       0.86436089       0.88760486 </v>
   <v>       0.41151582       0.27617920       0.77922732 </v>
   <v>       0.86466337       0.58848418       0.11256065 </v>
   <v>       0.72382080       0.13533663       0.44589398 </v>
  </varray>
 </structure>
</modeling>
