# epsilon and Z* of atoms 1 4
   2.48082155   -0.00000000    0.00000000    0.00000000    2.48082155    0.00000000    0.00000000    0.00000000    2.51333836 
   2.98054793   -0.00000000    0.00000000   -0.00000000    3.62049126   -0.32132376    0.00000000    0.27802860    3.42535654 
  -1.31115748   -0.49333488   -0.31019627   -0.43614151   -1.98936212   -0.67895864   -0.24344107   -0.72145846   -1.71267827 
