phonopy:
  version: "2.20.0"
  frequency_unit_conversion_factor: 15.633302
  symmetry_tolerance: 1.00000e-05
  configuration:
    cell_filename: "unitcell.vasp"
    create_displacements: ".true."
    dim: "2 2 2"

physical_unit:
  atomic_mass: "AMU"
  length: "angstrom"
  force_constants: "eV/angstrom^2"

space_group:
  type: "P3_221"
  number: 154
  Hall_symbol: "P 32 2\""

supercell_matrix:
- [   2,   0,   0 ]
- [   0,   2,   0 ]
- [   0,   0,   2 ]

primitive_cell:
  lattice:
  - [     4.873429876587434,     0.000000000000000,     0.000000000000000 ] # a
  - [    -2.436714938293717,     4.220514076686779,     0.000000000000000 ] # b
  - [     0.000000000000000,     0.000000000000000,     5.374189819951033 ] # c
  points:
  - symbol: Si # 1
    coordinates: [  0.464682951386933,  0.000000000000000,  0.666666666666664 ]
    mass: 28.085500
  - symbol: Si # 2
    coordinates: [  0.000000000000000,  0.464682951386933,  0.333333333333336 ]
    mass: 28.085500
  - symbol: Si # 3
    coordinates: [  0.535317048613067,  0.535317048613067,  0.000000000000000 ]
    mass: 28.085500
  - symbol: O  # 4
    coordinates: [  0.135487870633838,  0.723982511991842,  0.554188772932832 ]
    mass: 15.999400
  - symbol: O  # 5
    coordinates: [  0.276017488008158,  0.411505358641996,  0.220855439599497 ]
    mass: 15.999400
  - symbol: O  # 6
    coordinates: [  0.588494641358004,  0.864512129366162,  0.887522106266161 ]
    mass: 15.999400
  - symbol: O  # 7
    coordinates: [  0.411505358641996,  0.276017488008158,  0.779144560400503 ]
    mass: 15.999400
  - symbol: O  # 8
    coordinates: [  0.864512129366162,  0.588494641358004,  0.112477893733839 ]
    mass: 15.999400
  - symbol: O  # 9
    coordinates: [  0.723982511991842,  0.135487870633838,  0.445811227067168 ]
    mass: 15.999400
  reciprocal_lattice: # without 2pi
  - [     0.205194293408042,     0.118468980535308,     0.000000000000000 ] # a*
  - [     0.000000000000000,     0.236937961070616,     0.000000000000000 ] # b*
  - [     0.000000000000000,     0.000000000000000,     0.186074558864226 ] # c*

unit_cell:
  lattice:
  - [     4.873429876587434,     0.000000000000000,     0.000000000000000 ] # a
  - [    -2.436714938293717,     4.220514076686779,     0.000000000000000 ] # b
  - [     0.000000000000000,     0.000000000000000,     5.374189819951033 ] # c
  points:
  - symbol: Si # 1
    coordinates: [  0.464682951386933,  0.000000000000000,  0.666666666666664 ]
    mass: 28.085500
    reduced_to: 1
  - symbol: Si # 2
    coordinates: [  0.000000000000000,  0.464682951386933,  0.333333333333336 ]
    mass: 28.085500
    reduced_to: 2
  - symbol: Si # 3
    coordinates: [  0.535317048613067,  0.535317048613067,  0.000000000000000 ]
    mass: 28.085500
    reduced_to: 3
  - symbol: O  # 4
    coordinates: [  0.135487870633838,  0.723982511991842,  0.554188772932832 ]
    mass: 15.999400
    reduced_to: 4
  - symbol: O  # 5
    coordinates: [  0.276017488008158,  0.411505358641996,  0.220855439599497 ]
    mass: 15.999400
    reduced_to: 5
  - symbol: O  # 6
    coordinates: [  0.588494641358004,  0.864512129366162,  0.887522106266161 ]
    mass: 15.999400
    reduced_to: 6
  - symbol: O  # 7
    coordinates: [  0.411505358641996,  0.276017488008158,  0.779144560400503 ]
    mass: 15.999400
    reduced_to: 7
  - symbol: O  # 8
    coordinates: [  0.864512129366162,  0.588494641358004,  0.112477893733839 ]
    mass: 15.999400
    reduced_to: 8
  - symbol: O  # 9
    coordinates: [  0.723982511991842,  0.135487870633838,  0.445811227067168 ]
    mass: 15.999400
    reduced_to: 9

supercell:
  lattice:
  - [     9.746859753174869,     0.000000000000000,     0.000000000000000 ] # a
  - [    -4.873429876587434,     8.441028153373558,     0.000000000000000 ] # b
  - [     0.000000000000000,     0.000000000000000,    10.748379639902065 ] # c
  points:
  - symbol: Si # 1
    coordinates: [  0.232341475693467,  0.000000000000000,  0.333333333333332 ]
    mass: 28.085500
    reduced_to: 1
  - symbol: Si # 2
    coordinates: [  0.732341475693467,  0.000000000000000,  0.333333333333332 ]
    mass: 28.085500
    reduced_to: 1
  - symbol: Si # 3
    coordinates: [  0.232341475693467,  0.500000000000000,  0.333333333333332 ]
    mass: 28.085500
    reduced_to: 1
  - symbol: Si # 4
    coordinates: [  0.732341475693467,  0.500000000000000,  0.333333333333332 ]
    mass: 28.085500
    reduced_to: 1
  - symbol: Si # 5
    coordinates: [  0.232341475693467,  0.000000000000000,  0.833333333333332 ]
    mass: 28.085500
    reduced_to: 1
  - symbol: Si # 6
    coordinates: [  0.732341475693467,  0.000000000000000,  0.833333333333332 ]
    mass: 28.085500
    reduced_to: 1
  - symbol: Si # 7
    coordinates: [  0.232341475693467,  0.500000000000000,  0.833333333333332 ]
    mass: 28.085500
    reduced_to: 1
  - symbol: Si # 8
    coordinates: [  0.732341475693467,  0.500000000000000,  0.833333333333332 ]
    mass: 28.085500
    reduced_to: 1
  - symbol: Si # 9
    coordinates: [  0.000000000000000,  0.232341475693467,  0.166666666666668 ]
    mass: 28.085500
    reduced_to: 9
  - symbol: Si # 10
    coordinates: [  0.500000000000000,  0.232341475693467,  0.166666666666668 ]
    mass: 28.085500
    reduced_to: 9
  - symbol: Si # 11
    coordinates: [  0.000000000000000,  0.732341475693467,  0.166666666666668 ]
    mass: 28.085500
    reduced_to: 9
  - symbol: Si # 12
    coordinates: [  0.500000000000000,  0.732341475693467,  0.166666666666668 ]
    mass: 28.085500
    reduced_to: 9
  - symbol: Si # 13
    coordinates: [  0.000000000000000,  0.232341475693467,  0.666666666666668 ]
    mass: 28.085500
    reduced_to: 9
  - symbol: Si # 14
    coordinates: [  0.500000000000000,  0.232341475693467,  0.666666666666668 ]
    mass: 28.085500
    reduced_to: 9
  - symbol: Si # 15
    coordinates: [  0.000000000000000,  0.732341475693467,  0.666666666666668 ]
    mass: 28.085500
    reduced_to: 9
  - symbol: Si # 16
    coordinates: [  0.500000000000000,  0.732341475693467,  0.666666666666668 ]
    mass: 28.085500
    reduced_to: 9
  - symbol: Si # 17
    coordinates: [  0.267658524306533,  0.267658524306533,  0.000000000000000 ]
    mass: 28.085500
    reduced_to: 17
  - symbol: Si # 18
    coordinates: [  0.767658524306533,  0.267658524306533,  0.000000000000000 ]
    mass: 28.085500
    reduced_to: 17
  - symbol: Si # 19
    coordinates: [  0.267658524306533,  0.767658524306533,  0.000000000000000 ]
    mass: 28.085500
    reduced_to: 17
  - symbol: Si # 20
    coordinates: [  0.767658524306533,  0.767658524306533,  0.000000000000000 ]
    mass: 28.085500
    reduced_to: 17
  - symbol: Si # 21
    coordinates: [  0.267658524306533,  0.267658524306533,  0.500000000000000 ]
    mass: 28.085500
    reduced_to: 17
  - symbol: Si # 22
    coordinates: [  0.767658524306533,  0.267658524306533,  0.500000000000000 ]
    mass: 28.085500
    reduced_to: 17
  - symbol: Si # 23
    coordinates: [  0.267658524306533,  0.767658524306533,  0.500000000000000 ]
    mass: 28.085500
    reduced_to: 17
  - symbol: Si # 24
    coordinates: [  0.767658524306533,  0.767658524306533,  0.500000000000000 ]
    mass: 28.085500
    reduced_to: 17
  - symbol: O  # 25
    coordinates: [  0.067743935316919,  0.361991255995921,  0.277094386466416 ]
    mass: 15.999400
    reduced_to: 25
  - symbol: O  # 26
    coordinates: [  0.567743935316919,  0.361991255995921,  0.277094386466416 ]
    mass: 15.999400
    reduced_to: 25
  - symbol: O  # 27
    coordinates: [  0.067743935316919,  0.861991255995921,  0.277094386466416 ]
    mass: 15.999400
    reduced_to: 25
  - symbol: O  # 28
    coordinates: [  0.567743935316919,  0.861991255995921,  0.277094386466416 ]
    mass: 15.999400
    reduced_to: 25
  - symbol: O  # 29
    coordinates: [  0.067743935316919,  0.361991255995921,  0.777094386466416 ]
    mass: 15.999400
    reduced_to: 25
  - symbol: O  # 30
    coordinates: [  0.567743935316919,  0.361991255995921,  0.777094386466416 ]
    mass: 15.999400
    reduced_to: 25
  - symbol: O  # 31
    coordinates: [  0.067743935316919,  0.861991255995921,  0.777094386466416 ]
    mass: 15.999400
    reduced_to: 25
  - symbol: O  # 32
    coordinates: [  0.567743935316919,  0.861991255995921,  0.777094386466416 ]
    mass: 15.999400
    reduced_to: 25
  - symbol: O  # 33
    coordinates: [  0.138008744004079,  0.205752679320998,  0.110427719799748 ]
    mass: 15.999400
    reduced_to: 33
  - symbol: O  # 34
    coordinates: [  0.638008744004079,  0.205752679320998,  0.110427719799748 ]
    mass: 15.999400
    reduced_to: 33
  - symbol: O  # 35
    coordinates: [  0.138008744004079,  0.705752679320998,  0.110427719799748 ]
    mass: 15.999400
    reduced_to: 33
  - symbol: O  # 36
    coordinates: [  0.638008744004079,  0.705752679320998,  0.110427719799748 ]
    mass: 15.999400
    reduced_to: 33
  - symbol: O  # 37
    coordinates: [  0.138008744004079,  0.205752679320998,  0.610427719799748 ]
    mass: 15.999400
    reduced_to: 33
  - symbol: O  # 38
    coordinates: [  0.638008744004079,  0.205752679320998,  0.610427719799748 ]
    mass: 15.999400
    reduced_to: 33
  - symbol: O  # 39
    coordinates: [  0.138008744004079,  0.705752679320998,  0.610427719799748 ]
    mass: 15.999400
    reduced_to: 33
  - symbol: O  # 40
    coordinates: [  0.638008744004079,  0.705752679320998,  0.610427719799748 ]
    mass: 15.999400
    reduced_to: 33
  - symbol: O  # 41
    coordinates: [  0.294247320679002,  0.432256064683081,  0.443761053133080 ]
    mass: 15.999400
    reduced_to: 41
  - symbol: O  # 42
    coordinates: [  0.794247320679002,  0.432256064683081,  0.443761053133080 ]
    mass: 15.999400
    reduced_to: 41
  - symbol: O  # 43
    coordinates: [  0.294247320679002,  0.932256064683081,  0.443761053133080 ]
    mass: 15.999400
    reduced_to: 41
  - symbol: O  # 44
    coordinates: [  0.794247320679002,  0.932256064683081,  0.443761053133080 ]
    mass: 15.999400
    reduced_to: 41
  - symbol: O  # 45
    coordinates: [  0.294247320679002,  0.432256064683081,  0.943761053133080 ]
    mass: 15.999400
    reduced_to: 41
  - symbol: O  # 46
    coordinates: [  0.794247320679002,  0.432256064683081,  0.943761053133080 ]
    mass: 15.999400
    reduced_to: 41
  - symbol: O  # 47
    coordinates: [  0.294247320679002,  0.932256064683081,  0.943761053133080 ]
    mass: 15.999400
    reduced_to: 41
  - symbol: O  # 48
    coordinates: [  0.794247320679002,  0.932256064683081,  0.943761053133080 ]
    mass: 15.999400
    reduced_to: 41
  - symbol: O  # 49
    coordinates: [  0.205752679320998,  0.138008744004079,  0.389572280200252 ]
    mass: 15.999400
    reduced_to: 49
  - symbol: O  # 50
    coordinates: [  0.705752679320998,  0.138008744004079,  0.389572280200252 ]
    mass: 15.999400
    reduced_to: 49
  - symbol: O  # 51
    coordinates: [  0.205752679320998,  0.638008744004079,  0.389572280200252 ]
    mass: 15.999400
    reduced_to: 49
  - symbol: O  # 52
    coordinates: [  0.705752679320998,  0.638008744004079,  0.389572280200252 ]
    mass: 15.999400
    reduced_to: 49
  - symbol: O  # 53
    coordinates: [  0.205752679320998,  0.138008744004079,  0.889572280200252 ]
    mass: 15.999400
    reduced_to: 49
  - symbol: O  # 54
    coordinates: [  0.705752679320998,  0.138008744004079,  0.889572280200252 ]
    mass: 15.999400
    reduced_to: 49
  - symbol: O  # 55
    coordinates: [  0.205752679320998,  0.638008744004079,  0.889572280200252 ]
    mass: 15.999400
    reduced_to: 49
  - symbol: O  # 56
    coordinates: [  0.705752679320998,  0.638008744004079,  0.889572280200252 ]
    mass: 15.999400
    reduced_to: 49
  - symbol: O  # 57
    coordinates: [  0.432256064683081,  0.294247320679002,  0.056238946866920 ]
    mass: 15.999400
    reduced_to: 57
  - symbol: O  # 58
    coordinates: [  0.932256064683081,  0.294247320679002,  0.056238946866920 ]
    mass: 15.999400
    reduced_to: 57
  - symbol: O  # 59
    coordinates: [  0.432256064683081,  0.794247320679002,  0.056238946866920 ]
    mass: 15.999400
    reduced_to: 57
  - symbol: O  # 60
    coordinates: [  0.932256064683081,  0.794247320679002,  0.056238946866920 ]
    mass: 15.999400
    reduced_to: 57
  - symbol: O  # 61
    coordinates: [  0.432256064683081,  0.294247320679002,  0.556238946866920 ]
    mass: 15.999400
    reduced_to: 57
  - symbol: O  # 62
    coordinates: [  0.932256064683081,  0.294247320679002,  0.556238946866920 ]
    mass: 15.999400
    reduced_to: 57
  - symbol: O  # 63
    coordinates: [  0.432256064683081,  0.794247320679002,  0.556238946866920 ]
    mass: 15.999400
    reduced_to: 57
  - symbol: O  # 64
    coordinates: [  0.932256064683081,  0.794247320679002,  0.556238946866920 ]
    mass: 15.999400
    reduced_to: 57
  - symbol: O  # 65
    coordinates: [  0.361991255995921,  0.067743935316919,  0.222905613533584 ]
    mass: 15.999400
    reduced_to: 65
  - symbol: O  # 66
    coordinates: [  0.861991255995921,  0.067743935316919,  0.222905613533584 ]
    mass: 15.999400
    reduced_to: 65
  - symbol: O  # 67
    coordinates: [  0.361991255995921,  0.567743935316919,  0.222905613533584 ]
    mass: 15.999400
    reduced_to: 65
  - symbol: O  # 68
    coordinates: [  0.861991255995921,  0.567743935316919,  0.222905613533584 ]
    mass: 15.999400
    reduced_to: 65
  - symbol: O  # 69
    coordinates: [  0.361991255995921,  0.067743935316919,  0.722905613533584 ]
    mass: 15.999400
    reduced_to: 65
  - symbol: O  # 70
    coordinates: [  0.861991255995921,  0.067743935316919,  0.722905613533584 ]
    mass: 15.999400
    reduced_to: 65
  - symbol: O  # 71
    coordinates: [  0.361991255995921,  0.567743935316919,  0.722905613533584 ]
    mass: 15.999400
    reduced_to: 65
  - symbol: O  # 72
    coordinates: [  0.861991255995921,  0.567743935316919,  0.722905613533584 ]
    mass: 15.999400
    reduced_to: 65

displacements:
- atom:    1
  displacement:
    [  -0.0050000000000000,  0.0086602540378444,  0.0000000000000000 ]
- atom:    1
  displacement:
    [   0.0050000000000000, -0.0086602540378444,  0.0000000000000000 ]
- atom:    1
  displacement:
    [   0.0000000000000000,  0.0000000000000000,  0.0100000000000000 ]
- atom:   25
  displacement:
    [   0.0100000000000000,  0.0000000000000000,  0.0000000000000000 ]
- atom:   25
  displacement:
    [  -0.0100000000000000,  0.0000000000000000,  0.0000000000000000 ]
- atom:   25
  displacement:
    [  -0.0050000000000000,  0.0086602540378444,  0.0000000000000000 ]
- atom:   25
  displacement:
    [   0.0050000000000000, -0.0086602540378444,  0.0000000000000000 ]
- atom:   25
  displacement:
    [   0.0000000000000000,  0.0000000000000000,  0.0100000000000000 ]
- atom:   25
  displacement:
    [   0.0000000000000000,  0.0000000000000000, -0.0100000000000000 ]
