<?xml version="1.0" encoding="ISO-8859-1"?>
<modeling>
 <generator>
  <i name="program" type="string">vasp </i>
  <i name="version" type="string">6.4.1  </i>
  <i name="subversion" type="string">05Apr23 (build Sep  6 2023 20:49:31) complex                          parallel </i>
  <i name="platform" type="string">LinuxNV </i>
  <i name="date" type="string">2023 10 19 </i>
  <i name="time" type="string">14:05:34 </i>
 </generator>
 <incar>
  <i type="string" name="PREC">Accurate</i>
  <i type="string" name="ALGO">Fast</i>
  <i name="EDIFF">      0.00000001</i>
  <i name="ENCUT">    500.00000000</i>
  <i type="int" name="ISMEAR">     0</i>
  <i name="SIGMA">      0.10000000</i>
  <i type="logical" name="LEPSILON"> T  </i>
 </incar>
 <primitive_cell>
  <structure name="primitive_cell" >
   <crystal>
    <varray name="basis" >
     <v>       4.87342988       0.00000000       0.00000000 </v>
     <v>      -2.43671494       4.22051408       0.00000000 </v>
     <v>       0.00000000       0.00000000       5.37418982 </v>
    </varray>
    <i name="volume">    110.53837516 </i>
    <varray name="rec_basis" >
     <v>       0.20519429       0.11846898      -0.00000000 </v>
     <v>       0.00000000       0.23693796       0.00000000 </v>
     <v>       0.00000000      -0.00000000       0.18607456 </v>
    </varray>
   </crystal>
   <varray name="positions" >
    <v>       0.46457699       0.00000000       0.66666667 </v>
    <v>       0.00000000       0.46457699       0.33333333 </v>
    <v>       0.53542301       0.53542301       0.00000000 </v>
    <v>       0.13537556       0.72380781       0.55428166 </v>
    <v>       0.27619219       0.41156775       0.22094833 </v>
    <v>       0.58843225       0.86462444       0.88761499 </v>
    <v>       0.41156775       0.27619219       0.77905167 </v>
    <v>       0.86462444       0.58843225       0.11238501 </v>
    <v>       0.72380781       0.13537556       0.44571834 </v>
   </varray>
  </structure>
  <varray name="primitive_index" >
   <v type="int" >        1 </v>
   <v type="int" >        2 </v>
   <v type="int" >        3 </v>
   <v type="int" >        4 </v>
   <v type="int" >        5 </v>
   <v type="int" >        6 </v>
   <v type="int" >        7 </v>
   <v type="int" >        8 </v>
   <v type="int" >        9 </v>
  </varray>
 </primitive_cell>
 <kpoints>
  <generation param="Gamma">
   <v type="int" name="divisions">       4        4        4 </v>
   <v name="usershift">      0.00000000       0.00000000       0.00000000 </v>
   <v name="genvec1">      0.25000000       0.00000000       0.00000000 </v>
   <v name="genvec2">      0.00000000       0.25000000       0.00000000 </v>
   <v name="genvec3">      0.00000000       0.00000000       0.25000000 </v>
   <v name="shift">      0.00000000       0.00000000       0.00000000 </v>
  </generation>
  <varray name="kpointlist" >
   <v>       0.00000000       0.00000000       0.00000000 </v>
   <v>       0.25000000       0.00000000       0.00000000 </v>
   <v>       0.50000000       0.00000000       0.00000000 </v>
   <v>       0.25000000       0.25000000       0.00000000 </v>
   <v>       0.00000000       0.00000000       0.25000000 </v>
   <v>       0.25000000       0.00000000       0.25000000 </v>
   <v>       0.00000000       0.25000000       0.25000000 </v>
   <v>       0.50000000       0.00000000       0.25000000 </v>
   <v>       0.25000000       0.25000000       0.25000000 </v>
   <v>       0.00000000       0.00000000       0.50000000 </v>
   <v>       0.25000000       0.00000000       0.50000000 </v>
   <v>       0.50000000       0.00000000       0.50000000 </v>
   <v>       0.25000000       0.25000000       0.50000000 </v>
  </varray>
  <varray name="weights" >
   <v>       0.01562500 </v>
   <v>       0.09375000 </v>
   <v>       0.04687500 </v>
   <v>       0.09375000 </v>
   <v>       0.03125000 </v>
   <v>       0.09375000 </v>
   <v>       0.09375000 </v>
   <v>       0.09375000 </v>
   <v>       0.18750000 </v>
   <v>       0.01562500 </v>
   <v>       0.09375000 </v>
   <v>       0.04687500 </v>
   <v>       0.09375000 </v>
  </varray>
 </kpoints>
 <parameters>
  <separator name="general" >
   <i type="string" name="SYSTEM">unknown system</i>
   <i type="logical" name="LCOMPAT"> F  </i>
  </separator>
  <separator name="electronic" >
   <i type="string" name="PREC">accura</i>
   <i name="ENMAX">    500.00000000</i>
   <i name="ENAUG">    605.39200000</i>
   <i name="EDIFF">      0.00000001</i>
   <i type="int" name="IALGO">    68</i>
   <i type="int" name="IWAVPR">    10</i>
   <i type="int" name="NBANDS">    29</i>
   <i type="int" name="NBANDSLOW">    -1</i>
   <i type="int" name="NBANDSHIGH">    -1</i>
   <i name="NELECT">     48.00000000</i>
   <i type="int" name="TURBO">     0</i>
   <i type="int" name="IRESTART">     0</i>
   <i type="int" name="NREBOOT">     0</i>
   <i type="int" name="NMIN">     0</i>
   <i name="EREF">      0.00000000</i>
   <separator name="electronic smearing" >
    <i type="int" name="ISMEAR">     0</i>
    <i name="SIGMA">      0.10000000</i>
    <i name="KSPACING">      0.50000000</i>
    <i type="logical" name="KGAMMA"> T  </i>
    <i type="logical" name="KBLOWUP"> T  </i>
   </separator>
   <separator name="electronic projectors" >
    <i type="logical" name="LREAL"> F  </i>
    <v name="ROPT">      0.00000000      0.00000000</v>
    <i type="int" name="LMAXPAW">  -100</i>
    <i type="int" name="LMAXMIX">     2</i>
    <i type="logical" name="NLSPLINE"> F  </i>
   </separator>
   <separator name="electronic startup" >
    <i type="int" name="ISTART">     0</i>
    <i type="int" name="ICHARG">     2</i>
    <i type="int" name="INIWAV">     1</i>
   </separator>
   <separator name="electronic spin" >
    <i type="int" name="ISPIN">     1</i>
    <i type="logical" name="LNONCOLLINEAR"> F  </i>
    <v name="MAGMOM">      1.00000000      1.00000000      1.00000000      1.00000000      1.00000000      1.00000000      1.00000000      1.00000000      1.00000000</v>
    <i name="NUPDOWN">     -1.00000000</i>
    <i type="logical" name="LSORBIT"> F  </i>
    <v name="SAXIS">      0.00000000      0.00000000      1.00000000</v>
    <i type="logical" name="LSPIRAL"> F  </i>
    <v name="QSPIRAL">      0.00000000      0.00000000      0.00000000</v>
    <i type="logical" name="LZEROZ"> F  </i>
   </separator>
   <separator name="electronic exchange-correlation" >
    <i type="logical" name="LASPH"> F  </i>
    <i type="logical" name="LMETAGGA"> F  </i>
   </separator>
   <separator name="electronic convergence" >
    <i type="int" name="NELM">    60</i>
    <i type="int" name="NELMDL">    -5</i>
    <i type="int" name="NELMIN">     2</i>
    <i name="ENINI">    500.00000000</i>
    <separator name="electronic convergence detail" >
     <i type="logical" name="LDIAG"> T  </i>
     <i type="logical" name="LSUBROT"> F  </i>
     <i name="WEIMIN">      0.00000000</i>
     <i name="EBREAK">      0.00000000</i>
     <i name="DEPER">      0.30000000</i>
     <i type="int" name="NRMM">     4</i>
     <i name="TIME">      0.40000000</i>
    </separator>
   </separator>
   <separator name="electronic mixer" >
    <i name="AMIX">      0.40000000</i>
    <i name="BMIX">      1.00000000</i>
    <i name="AMIN">      0.10000000</i>
    <i name="AMIX_MAG">      1.60000000</i>
    <i name="BMIX_MAG">      1.00000000</i>
    <separator name="electronic mixer details" >
     <i type="int" name="IMIX">     4</i>
     <i type="logical" name="MIXFIRST"> F  </i>
     <i type="int" name="MAXMIX">   -45</i>
     <i name="WC">    100.00000000</i>
     <i type="int" name="INIMIX">     1</i>
     <i type="int" name="MIXPRE">     1</i>
     <i type="int" name="MREMOVE">     5</i>
    </separator>
   </separator>
   <separator name="electronic dipolcorrection" >
    <i type="logical" name="LDIPOL"> F  </i>
    <i type="logical" name="LMONO"> F  </i>
    <i type="int" name="IDIPOL">     0</i>
    <i name="EPSILON">      1.00000000</i>
    <v name="DIPOL">   -100.00000000   -100.00000000   -100.00000000</v>
    <i name="EFIELD">      0.00000000</i>
   </separator>
  </separator>
  <separator name="grids" >
   <i type="int" name="NGX">    36</i>
   <i type="int" name="NGY">    36</i>
   <i type="int" name="NGZ">    40</i>
   <i type="int" name="NGXF">    72</i>
   <i type="int" name="NGYF">    72</i>
   <i type="int" name="NGZF">    80</i>
   <i type="logical" name="ADDGRID"> F  </i>
  </separator>
  <separator name="ionic" >
   <i type="int" name="NSW">     0</i>
   <i type="int" name="IBRION">    -1</i>
   <i type="int" name="MDALGO">     0</i>
   <i type="int" name="ISIF">     2</i>
   <i name="PSTRESS">      0.00000000</i>
   <i name="EDIFFG">      0.00000010</i>
   <i type="int" name="NFREE">     0</i>
   <i name="POTIM">      0.50000000</i>
   <i name="SMASS">     -3.00000000</i>
   <i name="SCALEE">      1.00000000</i>
  </separator>
  <separator name="ionic md" >
   <i name="TEBEG">      0.00010000</i>
   <i name="TEEND">      0.00010000</i>
   <i type="int" name="NBLOCK">     1</i>
   <i type="int" name="KBLOCK">     1</i>
   <i type="int" name="NPACO">   256</i>
   <i name="APACO">     10.00000000</i>
  </separator>
  <separator name="symmetry" >
   <i type="int" name="ISYM">     2</i>
   <i name="SYMPREC">      0.00001000</i>
  </separator>
  <separator name="dos" >
   <i type="int" name="LORBIT">     0</i>
   <v name="RWIGS">     -1.00000000     -1.00000000</v>
   <i type="int" name="NEDOS">   301</i>
   <i name="EMIN">     10.00000000</i>
   <i name="EMAX">    -10.00000000</i>
   <i name="EFERMI">      0.00000000</i>
  </separator>
  <separator name="writing" >
   <i type="int" name="NWRITE">     2</i>
   <i type="logical" name="LWAVE"> T  </i>
   <i type="logical" name="LDOWNSAMPLE"> F  </i>
   <i type="logical" name="LCHARG"> T  </i>
   <i type="logical" name="LPARD"> F  </i>
   <i type="logical" name="LVTOT"> F  </i>
   <i type="logical" name="LVHAR"> F  </i>
   <i type="logical" name="LELF"> F  </i>
   <i type="logical" name="LOPTICS"> F  </i>
   <v name="STM">      0.00000000      0.00000000      0.00000000      0.00000000      0.00000000      0.00000000      0.00000000</v>
  </separator>
  <separator name="performance" >
   <i type="int" name="NPAR">     1</i>
   <i type="int" name="NSIM">     4</i>
   <i type="int" name="NBLK">    -1</i>
   <i type="logical" name="LPLANE"> T  </i>
   <i type="logical" name="LSCALAPACK"> T  </i>
   <i type="logical" name="LSCAAWARE"> F  </i>
   <i type="logical" name="LSCALU"> F  </i>
   <i type="logical" name="LASYNC"> F  </i>
   <i type="logical" name="LORBITALREAL"> F  </i>
  </separator>
  <separator name="miscellaneous" >
   <i type="int" name="IDIOT">     3</i>
   <i type="int" name="PHON_NSTRUCT">    -1</i>
   <i type="logical" name="LMUSIC"> F  </i>
   <v name="POMASS">     28.08500000     16.00000000</v>
   <v name="DARWINR">      0.00000000      0.00000000</v>
   <v name="DARWINV">      1.00000000      1.00000000</v>
   <i type="logical" name="LCORR"> T  </i>
  </separator>
  <i type="logical" name="GGA_COMPAT"> T  </i>
  <i type="logical" name="LBERRY"> F  </i>
  <i type="int" name="ICORELEVEL">     0</i>
  <i type="logical" name="LDAU"> F  </i>
  <i type="int" name="I_CONSTRAINED_M">     0</i>
  <separator name="electronic exchange-correlation" >
   <i type="string" name="GGA">--</i>
   <i type="int" name="VOSKOWN">     0</i>
   <i type="logical" name="LHFCALC"> F  </i>
   <i type="string" name="PRECFOCK"></i>
   <i type="logical" name="LSYMGRAD"> F  </i>
   <i type="logical" name="LHFONE"> F  </i>
   <i type="logical" name="LRHFCALC"> F  </i>
   <i type="logical" name="LTHOMAS"> F  </i>
   <i type="logical" name="LMODELHF"> F  </i>
   <i type="logical" name="LFOCKACE"> F  </i>
   <i name="ENCUT4O">     -1.00000000</i>
   <i type="int" name="EXXOEP">     0</i>
   <i type="int" name="FOURORBIT">     0</i>
   <i name="AEXX">      0.00000000</i>
   <i name="HFALPHA">      0.00000000</i>
   <i name="MCALPHA">      0.00000000</i>
   <i name="ALDAX">      1.00000000</i>
   <i name="AGGAX">      1.00000000</i>
   <i name="ALDAC">      1.00000000</i>
   <i name="AGGAC">      1.00000000</i>
   <i type="int" name="NKREDX">     1</i>
   <i type="int" name="NKREDY">     1</i>
   <i type="int" name="NKREDZ">     1</i>
   <i type="logical" name="SHIFTRED"> F  </i>
   <i type="logical" name="ODDONLY"> F  </i>
   <i type="logical" name="EVENONLY"> F  </i>
   <i type="int" name="LMAXFOCK">     0</i>
   <i type="int" name="NMAXFOCKAE">     0</i>
   <i type="logical" name="LFOCKAEDFT"> F  </i>
   <i name="HFSCREEN">      0.00000000</i>
   <i name="HFSCREENC">      0.00000000</i>
   <i type="int" name="NBANDSGWLOW">     0</i>
  </separator>
  <separator name="vdW DFT" >
   <i type="logical" name="LUSE_VDW"> F  </i>
   <i type="int" name="IVDW_NL">     1</i>
   <i type="logical" name="LSPIN_VDW"> F  </i>
   <i name="Zab_VDW">     -0.84910000</i>
   <i name="PARAM1">      0.12340000</i>
   <i name="PARAM2">      1.00000000</i>
   <i name="PARAM3">      0.00000000</i>
  </separator>
  <separator name="model GW" >
   <i type="int" name="MODEL_GW">     0</i>
   <i name="MODEL_EPS0">      7.36922501</i>
   <i name="MODEL_ALPHA">      1.00000000</i>
  </separator>
  <separator name="linear response parameters" >
   <i type="logical" name="LEPSILON"> T  </i>
   <i type="logical" name="LRPA"> F  </i>
   <i type="logical" name="LNABLA"> F  </i>
   <i type="logical" name="LVEL"> F  </i>
   <i name="CSHIFT">      0.10000000</i>
   <i name="OMEGAMAX">     -1.00000000</i>
   <i name="DEG_THRESHOLD">      0.00200000</i>
   <i name="RTIME">     -0.10000000</i>
   <i name="WPLASMAI">      0.00000000</i>
   <v name="DFIELD">      0.00000000      0.00000000      0.00000000</v>
   <v name="WPLASMA">      0.00000000      0.00000000      0.00000000      0.00000000      0.00000000      0.00000000      0.00000000      0.00000000      0.00000000</v>
  </separator>
  <separator name="orbital magnetization" >
   <i type="logical" name="NUCIND"> F  </i>
   <v name="MAGPOS">      0.00000000      0.00000000      0.00000000</v>
   <i type="logical" name="LNICSALL"> T  </i>
   <i type="logical" name="ORBITALMAG"> F  </i>
   <i type="logical" name="LMAGBLOCH"> F  </i>
   <i type="logical" name="LCHIMAG"> F  </i>
   <i type="logical" name="LGAUGE"> T  </i>
   <i type="int" name="MAGATOM">     0</i>
   <v name="MAGDIPOL">      0.00000000      0.00000000      0.00000000</v>
   <v name="AVECCONST">      0.00000000      0.00000000      0.00000000</v>
  </separator>
  <separator name="response functions" >
   <i type="logical" name="LALL_IN_ONE"> F  </i>
   <i type="int" name="IALL_IN_ONE">    -1</i>
   <i type="int" name="NBANDS_WAVE">    -1</i>
   <i type="logical" name="LFINITE_TEMPERATURE"> F  </i>
   <i type="logical" name="LADDER"> F  </i>
   <i type="logical" name="LRPAFORCE"> F  </i>
   <i type="logical" name="LFXC"> F  </i>
   <i type="logical" name="LHARTREE"> T  </i>
   <i type="int" name="IBSE">     0</i>
   <v type="int" name="KPOINT">    -1     0     0     0</v>
   <i type="logical" name="LTCTC"> F  </i>
   <i type="logical" name="LTCTE"> F  </i>
   <i type="logical" name="LTETE"> F  </i>
   <i type="logical" name="LTRIPLET"> F  </i>
   <i type="logical" name="LFXCEPS"> F  </i>
   <i type="logical" name="LFXHEG"> F  </i>
   <i type="int" name="NATURALO">     2</i>
   <i type="logical" name="LHOLEGF"> F  </i>
   <i type="logical" name="L2ORDER"> F  </i>
   <i type="logical" name="LDMP1"> F  </i>
   <i type="logical" name="LMP2LT"> F  </i>
   <i type="logical" name="LSMP2LT"> F  </i>
   <i type="logical" name="LGWLF"> F  </i>
   <i name="ENCUTGW">     -1.60000002</i>
   <i name="ENCUTGWSOFT">     -1.60000002</i>
   <i name="ENCUTLF">     -1.00000000</i>
   <i type="logical" name="LESF_SPLINES"> F  </i>
   <i type="int" name="LMAXMP2">    -1</i>
   <i name="SCISSOR">      0.00000000</i>
   <i type="int" name="NOMEGA">     0</i>
   <i type="int" name="NOMEGAR">     0</i>
   <i type="int" name="NBANDSGW">    -1</i>
   <i type="int" name="NBANDSO">    -1</i>
   <i type="int" name="NBANDSV">    -1</i>
   <i type="int" name="NELMGW">     1</i>
   <i type="int" name="NELMHF">     1</i>
   <i type="int" name="DIM">     3</i>
   <i type="int" name="IESPILON">     4</i>
   <i type="int" name="ANTIRES">     0</i>
   <i name="OMEGAMAX">    -30.00000000</i>
   <i name="OMEGAMIN">    -30.00000000</i>
   <i name="OMEGATL">   -200.00000000</i>
   <i type="int" name="OMEGAGRID">     0</i>
   <i name="CSHIFT">     -0.10000000</i>
   <i type="logical" name="LSELFENERGY"> F  </i>
   <i type="logical" name="LSPECTRAL"> F  </i>
   <i type="logical" name="LSPECTRALGW"> F  </i>
   <i type="logical" name="LSINGLES"> F  </i>
   <i type="logical" name="LFERMIGW"> F  </i>
   <i type="logical" name="ODDONLYGW"> F  </i>
   <i type="logical" name="EVENONLYGW"> F  </i>
   <i type="int" name="NKREDLFX">     1</i>
   <i type="int" name="NKREDLFY">     1</i>
   <i type="int" name="NKREDLFZ">     1</i>
   <i type="int" name="MAXMEM">  2800</i>
   <i type="int" name="TELESCOPE">     0</i>
   <i type="int" name="NTAUPAR">    -1</i>
   <i type="int" name="NOMEGAPAR">    -1</i>
   <i name="DAMP_NEWTON">      0.80000001</i>
   <i name="LAMBDA">      1.00000000</i>
  </separator>
  <separator name="External order field" >
   <i name="OFIELD_KAPPA">      0.00000000</i>
   <v name="OFIELD_K">      0.00000000      0.00000000      0.00000000</v>
   <i name="OFIELD_Q6_NEAR">      0.00000000</i>
   <i name="OFIELD_Q6_FAR">      0.00000000</i>
   <i name="OFIELD_A">      0.00000000</i>
  </separator>
  <separator name="optional k-points parameters" >
   <i type="int" name="KPOINTS_OPT_MODE">     1</i>
   <i type="logical" name="LKPOINTS_OPT"> F  </i>
  </separator>
 </parameters>
 <atominfo>
  <atoms>       9 </atoms>
  <types>       2 </types>
  <array name="atoms" >
   <dimension dim="1">ion</dimension>
   <field type="string">element</field>
   <field type="int">atomtype</field>
   <set>
    <rc><c>Si</c><c>   1</c></rc>
    <rc><c>Si</c><c>   1</c></rc>
    <rc><c>Si</c><c>   1</c></rc>
    <rc><c>O </c><c>   2</c></rc>
    <rc><c>O </c><c>   2</c></rc>
    <rc><c>O </c><c>   2</c></rc>
    <rc><c>O </c><c>   2</c></rc>
    <rc><c>O </c><c>   2</c></rc>
    <rc><c>O </c><c>   2</c></rc>
   </set>
  </array>
  <array name="atomtypes" >
   <dimension dim="1">type</dimension>
   <field type="int">atomspertype</field>
   <field type="string">element</field>
   <field>mass</field>
   <field>valence</field>
   <field type="string">pseudopotential</field>
   <set>
    <rc><c>   3</c><c>Si</c><c>     28.08500000</c><c>      4.00000000</c><c>  PAW_PBE Si 05Jan2001                  </c></rc>
    <rc><c>   6</c><c>O </c><c>     16.00000000</c><c>      6.00000000</c><c>  PAW_PBE O 08Apr2002                   </c></rc>
   </set>
  </array>
 </atominfo>
 <structure name="initialpos" >
  <crystal>
   <varray name="basis" >
    <v>       4.87342988       0.00000000       0.00000000 </v>
    <v>      -2.43671494       4.22051408       0.00000000 </v>
    <v>       0.00000000       0.00000000       5.37418982 </v>
   </varray>
   <i name="volume">    110.53837516 </i>
   <varray name="rec_basis" >
    <v>       0.20519429       0.11846898      -0.00000000 </v>
    <v>       0.00000000       0.23693796       0.00000000 </v>
    <v>       0.00000000      -0.00000000       0.18607456 </v>
   </varray>
  </crystal>
  <varray name="positions" >
   <v>       0.46457699       0.00000000       0.66666667 </v>
   <v>       0.00000000       0.46457699       0.33333333 </v>
   <v>       0.53542301       0.53542301       0.00000000 </v>
   <v>       0.13537556       0.72380781       0.55428166 </v>
   <v>       0.27619219       0.41156775       0.22094833 </v>
   <v>       0.58843225       0.86462444       0.88761499 </v>
   <v>       0.41156775       0.27619219       0.77905167 </v>
   <v>       0.86462444       0.58843225       0.11238501 </v>
   <v>       0.72380781       0.13537556       0.44571834 </v>
  </varray>
 </structure>
 <calculation>
  <scstep>
   <time name="dav">    0.51    0.50</time>
   <time name="total">    0.54    0.52</time>
   <energy>
    <i name="alphaZ">     71.30271804 </i>
    <i name="ewald">  -1930.38032984 </i>
    <i name="hartreedc">   -909.29159918 </i>
    <i name="XCdc">    141.70670899 </i>
    <i name="pawpsdc">   2343.66826019 </i>
    <i name="pawaedc">  -2301.68043871 </i>
    <i name="eentropy">     -0.00332769 </i>
    <i name="bandstr">    -13.53946262 </i>
    <i name="atom">   2903.33737771 </i>
    <i name="e_fr_energy">    305.11990689 </i>
    <i name="e_wo_entrp">    305.12323458 </i>
    <i name="e_0_energy">    305.12157073 </i>
   </energy>
  </scstep>
  <scstep>
   <time name="dav">    0.45    0.46</time>
   <time name="total">    0.46    0.46</time>
   <energy>
    <i name="e_fr_energy">    -60.79556980 </i>
    <i name="e_wo_entrp">    -60.79556980 </i>
    <i name="e_0_energy">    -60.79556980 </i>
   </energy>
  </scstep>
  <scstep>
   <time name="dav">    0.43    0.43</time>
   <time name="total">    0.43    0.43</time>
   <energy>
    <i name="e_fr_energy">    -80.16282553 </i>
    <i name="e_wo_entrp">    -80.16282553 </i>
    <i name="e_0_energy">    -80.16282553 </i>
   </energy>
  </scstep>
  <scstep>
   <time name="dav">    0.43    0.44</time>
   <time name="total">    0.43    0.44</time>
   <energy>
    <i name="e_fr_energy">    -80.41606129 </i>
    <i name="e_wo_entrp">    -80.41606129 </i>
    <i name="e_0_energy">    -80.41606129 </i>
   </energy>
  </scstep>
  <scstep>
   <time name="dav">    0.42    0.42</time>
   <time name="total">    0.51    0.48</time>
   <energy>
    <i name="e_fr_energy">    -80.42107129 </i>
    <i name="e_wo_entrp">    -80.42107129 </i>
    <i name="e_0_energy">    -80.42107129 </i>
   </energy>
  </scstep>
  <scstep>
   <time name="diag">    0.05    0.04</time>
   <time name="diis">    0.48    0.48</time>
   <time name="orth">    0.00    0.00</time>
   <time name="total">    0.65    0.60</time>
   <energy>
    <i name="e_fr_energy">    -70.67417097 </i>
    <i name="e_wo_entrp">    -70.67417097 </i>
    <i name="e_0_energy">    -70.67417097 </i>
   </energy>
  </scstep>
  <scstep>
   <time name="diag">    0.05    0.04</time>
   <time name="diis">    0.53    0.53</time>
   <time name="orth">    0.00    0.00</time>
   <time name="total">    0.70    0.65</time>
   <energy>
    <i name="e_fr_energy">    -70.97705058 </i>
    <i name="e_wo_entrp">    -70.97705058 </i>
    <i name="e_0_energy">    -70.97705058 </i>
   </energy>
  </scstep>
  <scstep>
   <time name="diag">    0.05    0.04</time>
   <time name="diis">    0.53    0.53</time>
   <time name="orth">    0.00    0.00</time>
   <time name="total">    0.70    0.65</time>
   <energy>
    <i name="e_fr_energy">    -70.96901851 </i>
    <i name="e_wo_entrp">    -70.96901851 </i>
    <i name="e_0_energy">    -70.96901851 </i>
   </energy>
  </scstep>
  <scstep>
   <time name="diag">    0.05    0.04</time>
   <time name="diis">    0.53    0.54</time>
   <time name="orth">    0.00    0.00</time>
   <time name="total">    0.70    0.65</time>
   <energy>
    <i name="e_fr_energy">    -70.98810427 </i>
    <i name="e_wo_entrp">    -70.98810427 </i>
    <i name="e_0_energy">    -70.98810427 </i>
   </energy>
  </scstep>
  <scstep>
   <time name="diag">    0.05    0.04</time>
   <time name="diis">    0.54    0.55</time>
   <time name="orth">    0.00    0.00</time>
   <time name="total">    0.71    0.66</time>
   <energy>
    <i name="e_fr_energy">    -70.99341614 </i>
    <i name="e_wo_entrp">    -70.99341614 </i>
    <i name="e_0_energy">    -70.99341614 </i>
   </energy>
  </scstep>
  <scstep>
   <time name="diag">    0.05    0.04</time>
   <time name="diis">    0.53    0.54</time>
   <time name="orth">    0.00    0.00</time>
   <time name="total">    0.71    0.65</time>
   <energy>
    <i name="e_fr_energy">    -70.98953875 </i>
    <i name="e_wo_entrp">    -70.98953875 </i>
    <i name="e_0_energy">    -70.98953875 </i>
   </energy>
  </scstep>
  <scstep>
   <time name="diag">    0.05    0.04</time>
   <time name="diis">    0.54    0.54</time>
   <time name="orth">    0.00    0.00</time>
   <time name="total">    0.71    0.66</time>
   <energy>
    <i name="e_fr_energy">    -70.99013871 </i>
    <i name="e_wo_entrp">    -70.99013871 </i>
    <i name="e_0_energy">    -70.99013871 </i>
   </energy>
  </scstep>
  <scstep>
   <time name="diag">    0.05    0.04</time>
   <time name="diis">    0.57    0.57</time>
   <time name="orth">    0.00    0.00</time>
   <time name="total">    0.74    0.69</time>
   <energy>
    <i name="e_fr_energy">    -70.98990151 </i>
    <i name="e_wo_entrp">    -70.98990151 </i>
    <i name="e_0_energy">    -70.98990151 </i>
   </energy>
  </scstep>
  <scstep>
   <time name="diag">    0.05    0.04</time>
   <time name="diis">    0.54    0.55</time>
   <time name="orth">    0.00    0.00</time>
   <time name="total">    0.72    0.67</time>
   <energy>
    <i name="e_fr_energy">    -70.98986252 </i>
    <i name="e_wo_entrp">    -70.98986252 </i>
    <i name="e_0_energy">    -70.98986252 </i>
   </energy>
  </scstep>
  <scstep>
   <time name="diag">    0.05    0.04</time>
   <time name="diis">    0.59    0.60</time>
   <time name="orth">    0.00    0.00</time>
   <time name="total">    0.77    0.71</time>
   <energy>
    <i name="e_fr_energy">    -70.98985894 </i>
    <i name="e_wo_entrp">    -70.98985894 </i>
    <i name="e_0_energy">    -70.98985894 </i>
   </energy>
  </scstep>
  <scstep>
   <time name="diag">    0.05    0.04</time>
   <time name="diis">    0.54    0.54</time>
   <time name="orth">    0.00    0.00</time>
   <time name="total">    0.71    0.66</time>
   <energy>
    <i name="e_fr_energy">    -70.98985781 </i>
    <i name="e_wo_entrp">    -70.98985781 </i>
    <i name="e_0_energy">    -70.98985781 </i>
   </energy>
  </scstep>
  <scstep>
   <time name="diag">    0.05    0.04</time>
   <time name="diis">    0.54    0.54</time>
   <time name="orth">    0.00    0.00</time>
   <time name="total">    0.71    0.66</time>
   <energy>
    <i name="e_fr_energy">    -70.98985801 </i>
    <i name="e_wo_entrp">    -70.98985801 </i>
    <i name="e_0_energy">    -70.98985801 </i>
   </energy>
  </scstep>
  <scstep>
   <time name="diag">    0.05    0.04</time>
   <time name="diis">    0.59    0.59</time>
   <time name="orth">    0.00    0.00</time>
   <time name="total">    0.85    0.72</time>
   <energy>
    <i name="e_fr_energy">    -70.98985819 </i>
    <i name="e_wo_entrp">    -70.98985819 </i>
    <i name="e_0_energy">    -70.98985819 </i>
   </energy>
  </scstep>
  <scstep>
   <time name="diag">    0.05    0.04</time>
   <time name="diis">    0.54    0.54</time>
   <time name="orth">    0.00    0.00</time>
   <time name="total">    0.72    0.66</time>
   <energy>
    <i name="e_fr_energy">    -70.98985817 </i>
    <i name="e_wo_entrp">    -70.98985817 </i>
    <i name="e_0_energy">    -70.98985817 </i>
   </energy>
  </scstep>
  <scstep>
   <time name="diag">    0.05    0.04</time>
   <time name="diis">    0.55    0.55</time>
   <time name="orth">    0.00    0.00</time>
   <time name="total">    0.72    0.66</time>
   <energy>
    <i name="e_fr_energy">    -70.98985821 </i>
    <i name="e_wo_entrp">    -70.98985821 </i>
    <i name="e_0_energy">    -70.98985821 </i>
   </energy>
  </scstep>
  <scstep>
   <time name="diag">    0.05    0.04</time>
   <time name="diis">    0.36    0.37</time>
   <time name="orth">    0.00    0.00</time>
   <time name="total">    0.54    0.48</time>
   <energy>
    <i name="e_fr_energy">    -70.98985819 </i>
    <i name="e_wo_entrp">    -70.98985819 </i>
    <i name="e_0_energy">    -70.98985819 </i>
   </energy>
  </scstep>
  <scstep>
   <time name="diag">    0.05    0.04</time>
   <time name="diis">    0.35    0.36</time>
   <time name="orth">    0.00    0.00</time>
   <time name="total">    0.43    0.41</time>
   <energy>
    <i name="alphaZ">     71.30271804 </i>
    <i name="ewald">  -1930.38032984 </i>
    <i name="hartreedc">  -1040.40994599 </i>
    <i name="XCdc">    150.68009839 </i>
    <i name="pawpsdc">   8040.32526723 </i>
    <i name="pawaedc">  -8000.70183545 </i>
    <i name="eentropy">     -0.00000000 </i>
    <i name="bandstr">   -265.14320829 </i>
    <i name="atom">   2903.33737771 </i>
    <i name="e_fr_energy">    -70.98985818 </i>
    <i name="e_wo_entrp">    -70.98985818 </i>
    <i name="e_0_energy">    -70.98985818 </i>
   </energy>
  </scstep>
  <structure>
   <crystal>
    <varray name="basis" >
     <v>       4.87342988       0.00000000       0.00000000 </v>
     <v>      -2.43671494       4.22051408       0.00000000 </v>
     <v>       0.00000000       0.00000000       5.37418982 </v>
    </varray>
    <i name="volume">    110.53837516 </i>
    <varray name="rec_basis" >
     <v>       0.20519429       0.11846898      -0.00000000 </v>
     <v>       0.00000000       0.23693796       0.00000000 </v>
     <v>       0.00000000      -0.00000000       0.18607456 </v>
    </varray>
   </crystal>
   <varray name="positions" >
    <v>       0.46457699       0.00000000       0.66666667 </v>
    <v>       0.00000000       0.46457699       0.33333333 </v>
    <v>       0.53542301       0.53542301       0.00000000 </v>
    <v>       0.13537556       0.72380781       0.55428166 </v>
    <v>       0.27619219       0.41156775       0.22094833 </v>
    <v>       0.58843225       0.86462444       0.88761499 </v>
    <v>       0.41156775       0.27619219       0.77905167 </v>
    <v>       0.86462444       0.58843225       0.11238501 </v>
    <v>       0.72380781       0.13537556       0.44571834 </v>
   </varray>
  </structure>
  <varray name="forces" >
   <v>       0.02067222      -0.00000000       0.00000000 </v>
   <v>      -0.01033611       0.01790267       0.00000000 </v>
   <v>      -0.01033611      -0.01790267       0.00000000 </v>
   <v>      -0.27486224       0.00097326       0.15199747 </v>
   <v>       0.13658825      -0.23852431       0.15199747 </v>
   <v>       0.13827399       0.23755105       0.15199747 </v>
   <v>      -0.27486224      -0.00097326      -0.15199747 </v>
   <v>       0.13658825       0.23852431      -0.15199747 </v>
   <v>       0.13827399      -0.23755105      -0.15199747 </v>
  </varray>
  <varray name="stress" >
   <v>      71.49440532       0.00000000       0.00000000 </v>
   <v>       0.00000000      71.49440532       0.00000000 </v>
   <v>       0.00000000      -0.00000000      73.13343477 </v>
  </varray>
  <energy>
   <i name="e_fr_energy">    -70.98985818 </i>
   <i name="e_wo_entrp">    -70.98985818 </i>
   <i name="e_0_energy">    -70.98985818 </i>
  </energy>
  <scstep>
   <time name="total">    8.01    1.60</time>
   <energy>
    <i name="e_fr_energy">   -182.68306774 </i>
    <i name="e_wo_entrp">   -182.68306774 </i>
    <i name="e_0_energy">   -182.68306774 </i>
   </energy>
  </scstep>
  <scstep>
   <time name="total">    7.79    1.42</time>
   <energy>
    <i name="e_fr_energy">   -172.55234617 </i>
    <i name="e_wo_entrp">   -172.55234617 </i>
    <i name="e_0_energy">   -172.55234617 </i>
   </energy>
  </scstep>
  <scstep>
   <time name="total">    7.91    1.45</time>
   <energy>
    <i name="e_fr_energy">   -172.69845806 </i>
    <i name="e_wo_entrp">   -172.69845806 </i>
    <i name="e_0_energy">   -172.69845806 </i>
   </energy>
  </scstep>
  <scstep>
   <time name="total">    0.52    0.52</time>
   <energy>
    <i name="e_fr_energy">   -172.70583033 </i>
    <i name="e_wo_entrp">   -172.70583033 </i>
    <i name="e_0_energy">   -172.70583033 </i>
   </energy>
  </scstep>
  <scstep>
   <time name="total">    0.52    0.52</time>
   <energy>
    <i name="e_fr_energy">   -172.70600027 </i>
    <i name="e_wo_entrp">   -172.70600027 </i>
    <i name="e_0_energy">   -172.70600027 </i>
   </energy>
  </scstep>
  <scstep>
   <time name="total">    0.53    0.53</time>
   <energy>
    <i name="e_fr_energy">   -172.70600931 </i>
    <i name="e_wo_entrp">   -172.70600931 </i>
    <i name="e_0_energy">   -172.70600931 </i>
   </energy>
  </scstep>
  <scstep>
   <time name="total">    0.53    0.54</time>
   <energy>
    <i name="e_fr_energy">   -172.70600856 </i>
    <i name="e_wo_entrp">   -172.70600856 </i>
    <i name="e_0_energy">   -172.70600856 </i>
   </energy>
  </scstep>
  <scstep>
   <time name="total">    0.54    0.54</time>
   <energy>
    <i name="e_fr_energy">   -172.70600524 </i>
    <i name="e_wo_entrp">   -172.70600524 </i>
    <i name="e_0_energy">   -172.70600524 </i>
   </energy>
  </scstep>
  <scstep>
   <time name="total">    0.53    0.54</time>
   <energy>
    <i name="e_fr_energy">   -172.70600405 </i>
    <i name="e_wo_entrp">   -172.70600405 </i>
    <i name="e_0_energy">   -172.70600405 </i>
   </energy>
  </scstep>
  <scstep>
   <time name="total">    0.54    0.54</time>
   <energy>
    <i name="e_fr_energy">   -172.70600400 </i>
    <i name="e_wo_entrp">   -172.70600400 </i>
    <i name="e_0_energy">   -172.70600400 </i>
   </energy>
  </scstep>
  <scstep>
   <time name="total">    8.03    1.60</time>
   <energy>
    <i name="e_fr_energy">   -182.13301898 </i>
    <i name="e_wo_entrp">   -182.13301898 </i>
    <i name="e_0_energy">   -182.13301898 </i>
   </energy>
  </scstep>
  <scstep>
   <time name="total">    7.95    1.43</time>
   <energy>
    <i name="e_fr_energy">   -172.66845559 </i>
    <i name="e_wo_entrp">   -172.66845559 </i>
    <i name="e_0_energy">   -172.66845559 </i>
   </energy>
  </scstep>
  <scstep>
   <time name="total">    7.92    1.44</time>
   <energy>
    <i name="e_fr_energy">   -172.81112272 </i>
    <i name="e_wo_entrp">   -172.81112272 </i>
    <i name="e_0_energy">   -172.81112272 </i>
   </energy>
  </scstep>
  <scstep>
   <time name="total">    0.52    0.52</time>
   <energy>
    <i name="e_fr_energy">   -172.81841198 </i>
    <i name="e_wo_entrp">   -172.81841198 </i>
    <i name="e_0_energy">   -172.81841198 </i>
   </energy>
  </scstep>
  <scstep>
   <time name="total">    0.53    0.53</time>
   <energy>
    <i name="e_fr_energy">   -172.81860050 </i>
    <i name="e_wo_entrp">   -172.81860050 </i>
    <i name="e_0_energy">   -172.81860050 </i>
   </energy>
  </scstep>
  <scstep>
   <time name="total">    0.53    0.53</time>
   <energy>
    <i name="e_fr_energy">   -172.81861563 </i>
    <i name="e_wo_entrp">   -172.81861563 </i>
    <i name="e_0_energy">   -172.81861563 </i>
   </energy>
  </scstep>
  <scstep>
   <time name="total">    0.54    0.54</time>
   <energy>
    <i name="e_fr_energy">   -172.81861754 </i>
    <i name="e_wo_entrp">   -172.81861754 </i>
    <i name="e_0_energy">   -172.81861754 </i>
   </energy>
  </scstep>
  <scstep>
   <time name="total">    0.54    0.54</time>
   <energy>
    <i name="e_fr_energy">   -172.81861880 </i>
    <i name="e_wo_entrp">   -172.81861880 </i>
    <i name="e_0_energy">   -172.81861880 </i>
   </energy>
  </scstep>
  <scstep>
   <time name="total">    0.54    0.54</time>
   <energy>
    <i name="e_fr_energy">   -172.81861789 </i>
    <i name="e_wo_entrp">   -172.81861789 </i>
    <i name="e_0_energy">   -172.81861789 </i>
   </energy>
  </scstep>
  <scstep>
   <time name="total">    0.53    0.54</time>
   <energy>
    <i name="e_fr_energy">   -172.81861761 </i>
    <i name="e_wo_entrp">   -172.81861761 </i>
    <i name="e_0_energy">   -172.81861761 </i>
   </energy>
  </scstep>
  <scstep>
   <time name="total">    8.24    1.64</time>
   <energy>
    <i name="e_fr_energy">   -182.04014769 </i>
    <i name="e_wo_entrp">   -182.04014769 </i>
    <i name="e_0_energy">   -182.04014769 </i>
   </energy>
  </scstep>
  <scstep>
   <time name="total">    7.82    1.41</time>
   <energy>
    <i name="e_fr_energy">   -172.55573759 </i>
    <i name="e_wo_entrp">   -172.55573759 </i>
    <i name="e_0_energy">   -172.55573759 </i>
   </energy>
  </scstep>
  <scstep>
   <time name="total">    7.82    1.44</time>
   <energy>
    <i name="e_fr_energy">   -172.70886892 </i>
    <i name="e_wo_entrp">   -172.70886892 </i>
    <i name="e_0_energy">   -172.70886892 </i>
   </energy>
  </scstep>
  <scstep>
   <time name="total">    0.51    0.52</time>
   <energy>
    <i name="e_fr_energy">   -172.71622671 </i>
    <i name="e_wo_entrp">   -172.71622671 </i>
    <i name="e_0_energy">   -172.71622671 </i>
   </energy>
  </scstep>
  <scstep>
   <time name="total">    0.52    0.52</time>
   <energy>
    <i name="e_fr_energy">   -172.71638785 </i>
    <i name="e_wo_entrp">   -172.71638785 </i>
    <i name="e_0_energy">   -172.71638785 </i>
   </energy>
  </scstep>
  <scstep>
   <time name="total">    0.52    0.52</time>
   <energy>
    <i name="e_fr_energy">   -172.71639160 </i>
    <i name="e_wo_entrp">   -172.71639160 </i>
    <i name="e_0_energy">   -172.71639160 </i>
   </energy>
  </scstep>
  <scstep>
   <time name="total">    0.52    0.52</time>
   <energy>
    <i name="e_fr_energy">   -172.71639305 </i>
    <i name="e_wo_entrp">   -172.71639305 </i>
    <i name="e_0_energy">   -172.71639305 </i>
   </energy>
  </scstep>
  <scstep>
   <time name="total">    0.51    0.52</time>
   <energy>
    <i name="e_fr_energy">   -172.71639165 </i>
    <i name="e_wo_entrp">   -172.71639165 </i>
    <i name="e_0_energy">   -172.71639165 </i>
   </energy>
  </scstep>
  <scstep>
   <time name="total">    0.52    0.52</time>
   <energy>
    <i name="e_fr_energy">   -172.71638456 </i>
    <i name="e_wo_entrp">   -172.71638456 </i>
    <i name="e_0_energy">   -172.71638456 </i>
   </energy>
  </scstep>
  <scstep>
   <time name="total">    0.51    0.51</time>
   <energy>
    <i name="e_fr_energy">   -172.71638977 </i>
    <i name="e_wo_entrp">   -172.71638977 </i>
    <i name="e_0_energy">   -172.71638977 </i>
   </energy>
  </scstep>
  <scstep>
   <time name="total">    1.31    0.77</time>
   <energy>
    <i name="e_fr_energy">     -0.48231487 </i>
    <i name="e_wo_entrp">     -0.48231487 </i>
    <i name="e_0_energy">     -0.48231487 </i>
   </energy>
  </scstep>
  <scstep>
   <time name="total">    1.31    0.75</time>
   <energy>
    <i name="e_fr_energy">     -0.48475050 </i>
    <i name="e_wo_entrp">     -0.48475050 </i>
    <i name="e_0_energy">     -0.48475050 </i>
   </energy>
  </scstep>
  <scstep>
   <time name="total">    1.29    0.75</time>
   <energy>
    <i name="e_fr_energy">     -0.48493289 </i>
    <i name="e_wo_entrp">     -0.48493289 </i>
    <i name="e_0_energy">     -0.48493289 </i>
   </energy>
  </scstep>
  <scstep>
   <time name="total">    1.30    0.77</time>
   <energy>
    <i name="e_fr_energy">     -0.48494151 </i>
    <i name="e_wo_entrp">     -0.48494151 </i>
    <i name="e_0_energy">     -0.48494151 </i>
   </energy>
  </scstep>
  <scstep>
   <time name="total">    1.30    0.76</time>
   <energy>
    <i name="e_fr_energy">     -0.48494181 </i>
    <i name="e_wo_entrp">     -0.48494181 </i>
    <i name="e_0_energy">     -0.48494181 </i>
   </energy>
  </scstep>
  <scstep>
   <time name="total">    1.27    0.73</time>
   <energy>
    <i name="e_fr_energy">     -0.48494183 </i>
    <i name="e_wo_entrp">     -0.48494183 </i>
    <i name="e_0_energy">     -0.48494183 </i>
   </energy>
  </scstep>
  <scstep>
   <time name="total">    1.24    0.70</time>
   <energy>
    <i name="e_fr_energy">     -0.48494183 </i>
    <i name="e_wo_entrp">     -0.48494183 </i>
    <i name="e_0_energy">     -0.48494183 </i>
   </energy>
  </scstep>
  <scstep>
   <time name="total">    1.22    0.69</time>
   <energy>
    <i name="e_fr_energy">     -0.48494183 </i>
    <i name="e_wo_entrp">     -0.48494183 </i>
    <i name="e_0_energy">     -0.48494183 </i>
   </energy>
  </scstep>
  <scstep>
   <time name="total">    1.24    0.69</time>
   <energy>
    <i name="e_fr_energy">     -0.48494183 </i>
    <i name="e_wo_entrp">     -0.48494183 </i>
    <i name="e_0_energy">     -0.48494183 </i>
   </energy>
  </scstep>
  <scstep>
   <time name="total">    1.30    0.76</time>
   <energy>
    <i name="e_fr_energy">     -0.48405430 </i>
    <i name="e_wo_entrp">     -0.48405430 </i>
    <i name="e_0_energy">     -0.48405430 </i>
   </energy>
  </scstep>
  <scstep>
   <time name="total">    1.30    0.76</time>
   <energy>
    <i name="e_fr_energy">     -0.48626756 </i>
    <i name="e_wo_entrp">     -0.48626756 </i>
    <i name="e_0_energy">     -0.48626756 </i>
   </energy>
  </scstep>
  <scstep>
   <time name="total">    1.29    0.75</time>
   <energy>
    <i name="e_fr_energy">     -0.48645997 </i>
    <i name="e_wo_entrp">     -0.48645997 </i>
    <i name="e_0_energy">     -0.48645997 </i>
   </energy>
  </scstep>
  <scstep>
   <time name="total">    1.31    0.77</time>
   <energy>
    <i name="e_fr_energy">     -0.48646873 </i>
    <i name="e_wo_entrp">     -0.48646873 </i>
    <i name="e_0_energy">     -0.48646873 </i>
   </energy>
  </scstep>
  <scstep>
   <time name="total">    1.33    0.77</time>
   <energy>
    <i name="e_fr_energy">     -0.48646904 </i>
    <i name="e_wo_entrp">     -0.48646904 </i>
    <i name="e_0_energy">     -0.48646904 </i>
   </energy>
  </scstep>
  <scstep>
   <time name="total">    1.27    0.73</time>
   <energy>
    <i name="e_fr_energy">     -0.48646906 </i>
    <i name="e_wo_entrp">     -0.48646906 </i>
    <i name="e_0_energy">     -0.48646906 </i>
   </energy>
  </scstep>
  <scstep>
   <time name="total">    1.24    0.70</time>
   <energy>
    <i name="e_fr_energy">     -0.48646906 </i>
    <i name="e_wo_entrp">     -0.48646906 </i>
    <i name="e_0_energy">     -0.48646906 </i>
   </energy>
  </scstep>
  <scstep>
   <time name="total">    1.23    0.69</time>
   <energy>
    <i name="e_fr_energy">     -0.48646906 </i>
    <i name="e_wo_entrp">     -0.48646906 </i>
    <i name="e_0_energy">     -0.48646906 </i>
   </energy>
  </scstep>
  <scstep>
   <time name="total">    1.22    0.68</time>
   <energy>
    <i name="e_fr_energy">     -0.48646906 </i>
    <i name="e_wo_entrp">     -0.48646906 </i>
    <i name="e_0_energy">     -0.48646906 </i>
   </energy>
  </scstep>
  <scstep>
   <time name="total">    1.30    0.76</time>
   <energy>
    <i name="e_fr_energy">     -0.48774723 </i>
    <i name="e_wo_entrp">     -0.48774723 </i>
    <i name="e_0_energy">     -0.48774723 </i>
   </energy>
  </scstep>
  <scstep>
   <time name="total">    1.29    0.75</time>
   <energy>
    <i name="e_fr_energy">     -0.48980005 </i>
    <i name="e_wo_entrp">     -0.48980005 </i>
    <i name="e_0_energy">     -0.48980005 </i>
   </energy>
  </scstep>
  <scstep>
   <time name="total">    1.29    0.75</time>
   <energy>
    <i name="e_fr_energy">     -0.48999126 </i>
    <i name="e_wo_entrp">     -0.48999126 </i>
    <i name="e_0_energy">     -0.48999126 </i>
   </energy>
  </scstep>
  <scstep>
   <time name="total">    1.30    0.76</time>
   <energy>
    <i name="e_fr_energy">     -0.49000019 </i>
    <i name="e_wo_entrp">     -0.49000019 </i>
    <i name="e_0_energy">     -0.49000019 </i>
   </energy>
  </scstep>
  <scstep>
   <time name="total">    1.35    0.78</time>
   <energy>
    <i name="e_fr_energy">     -0.49000049 </i>
    <i name="e_wo_entrp">     -0.49000049 </i>
    <i name="e_0_energy">     -0.49000049 </i>
   </energy>
  </scstep>
  <scstep>
   <time name="total">    1.28    0.73</time>
   <energy>
    <i name="e_fr_energy">     -0.49000052 </i>
    <i name="e_wo_entrp">     -0.49000052 </i>
    <i name="e_0_energy">     -0.49000052 </i>
   </energy>
  </scstep>
  <scstep>
   <time name="total">    1.24    0.70</time>
   <energy>
    <i name="e_fr_energy">     -0.49000052 </i>
    <i name="e_wo_entrp">     -0.49000052 </i>
    <i name="e_0_energy">     -0.49000052 </i>
   </energy>
  </scstep>
  <scstep>
   <time name="total">    1.24    0.68</time>
   <energy>
    <i name="e_fr_energy">     -0.49000052 </i>
    <i name="e_wo_entrp">     -0.49000052 </i>
    <i name="e_0_energy">     -0.49000052 </i>
   </energy>
  </scstep>
  <scstep>
   <time name="total">    1.22    0.68</time>
   <energy>
    <i name="e_fr_energy">     -0.49000052 </i>
    <i name="e_wo_entrp">     -0.49000052 </i>
    <i name="e_0_energy">     -0.49000052 </i>
   </energy>
  </scstep>
  <scstep>
   <time name="total">    1.29    0.70</time>
   <energy>
    <i name="e_fr_energy">     -0.49000052 </i>
    <i name="e_wo_entrp">     -0.49000052 </i>
    <i name="e_0_energy">     -0.49000052 </i>
   </energy>
  </scstep>
  <varray name="dielectric_ipa" >
   <v>       2.59021166       0.00000000       0.00000000 </v>
   <v>       0.00000000       2.59021166       0.00000000 </v>
   <v>       0.00000000       0.00000000       2.60427514 </v>
  </varray>
  <kpoints>
   <generation param="Gamma">
    <v type="int" name="divisions">       4        4        4 </v>
    <v name="usershift">      0.00000000       0.00000000       0.00000000 </v>
    <v name="genvec1">      0.25000000       0.00000000       0.00000000 </v>
    <v name="genvec2">      0.00000000       0.25000000       0.00000000 </v>
    <v name="genvec3">      0.00000000       0.00000000       0.25000000 </v>
    <v name="shift">      0.00000000       0.00000000       0.00000000 </v>
   </generation>
   <varray name="kpointlist" >
    <v>       0.00000000       0.00000000       0.00000000 </v>
    <v>       0.25000000       0.00000000       0.00000000 </v>
    <v>       0.00000000       0.25000000       0.00000000 </v>
    <v>       0.50000000       0.00000000       0.00000000 </v>
    <v>       0.00000000       0.50000000       0.00000000 </v>
    <v>       0.25000000       0.25000000       0.00000000 </v>
    <v>       0.50000000       0.25000000       0.00000000 </v>
    <v>       0.00000000       0.00000000       0.25000000 </v>
    <v>       0.25000000       0.00000000       0.25000000 </v>
    <v>       0.00000000       0.25000000       0.25000000 </v>
    <v>      -0.25000000       0.00000000       0.25000000 </v>
    <v>       0.00000000      -0.25000000       0.25000000 </v>
    <v>       0.50000000       0.00000000       0.25000000 </v>
    <v>       0.00000000       0.50000000       0.25000000 </v>
    <v>       0.25000000       0.25000000       0.25000000 </v>
    <v>       0.50000000       0.25000000       0.25000000 </v>
    <v>      -0.25000000      -0.25000000       0.25000000 </v>
    <v>       0.00000000       0.00000000       0.50000000 </v>
    <v>       0.25000000       0.00000000       0.50000000 </v>
    <v>       0.00000000       0.25000000       0.50000000 </v>
    <v>       0.50000000       0.00000000       0.50000000 </v>
    <v>       0.00000000       0.50000000       0.50000000 </v>
    <v>       0.25000000       0.25000000       0.50000000 </v>
    <v>       0.50000000       0.25000000       0.50000000 </v>
   </varray>
   <varray name="weights" >
    <v>       0.01562500 </v>
    <v>       0.06250000 </v>
    <v>       0.03125000 </v>
    <v>       0.03125000 </v>
    <v>       0.01562500 </v>
    <v>       0.06250000 </v>
    <v>       0.03125000 </v>
    <v>       0.03125000 </v>
    <v>       0.06250000 </v>
    <v>       0.03125000 </v>
    <v>       0.06250000 </v>
    <v>       0.03125000 </v>
    <v>       0.06250000 </v>
    <v>       0.03125000 </v>
    <v>       0.06250000 </v>
    <v>       0.06250000 </v>
    <v>       0.06250000 </v>
    <v>       0.01562500 </v>
    <v>       0.06250000 </v>
    <v>       0.03125000 </v>
    <v>       0.03125000 </v>
    <v>       0.01562500 </v>
    <v>       0.06250000 </v>
    <v>       0.03125000 </v>
   </varray>
  </kpoints>
  <scstep>
   <time name="total">    1.83    1.29</time>
   <energy>
    <i name="e_fr_energy">     -0.48324964 </i>
    <i name="e_wo_entrp">     -0.48324964 </i>
    <i name="e_0_energy">     -0.48324964 </i>
   </energy>
  </scstep>
  <scstep>
   <time name="total">    1.90    1.33</time>
   <energy>
    <i name="e_fr_energy">     -0.48550963 </i>
    <i name="e_wo_entrp">     -0.48550963 </i>
    <i name="e_0_energy">     -0.48550963 </i>
   </energy>
  </scstep>
  <scstep>
   <time name="total">    1.97    1.36</time>
   <energy>
    <i name="e_fr_energy">     -0.46520449 </i>
    <i name="e_wo_entrp">     -0.46520449 </i>
    <i name="e_0_energy">     -0.46520449 </i>
   </energy>
  </scstep>
  <scstep>
   <time name="total">    1.91    1.35</time>
   <energy>
    <i name="e_fr_energy">     -0.47628270 </i>
    <i name="e_wo_entrp">     -0.47628270 </i>
    <i name="e_0_energy">     -0.47628270 </i>
   </energy>
  </scstep>
  <scstep>
   <time name="total">    1.92    1.35</time>
   <energy>
    <i name="e_fr_energy">     -0.49405192 </i>
    <i name="e_wo_entrp">     -0.49405192 </i>
    <i name="e_0_energy">     -0.49405192 </i>
   </energy>
  </scstep>
  <scstep>
   <time name="total">    1.88    1.32</time>
   <energy>
    <i name="e_fr_energy">     -0.49695899 </i>
    <i name="e_wo_entrp">     -0.49695899 </i>
    <i name="e_0_energy">     -0.49695899 </i>
   </energy>
  </scstep>
  <scstep>
   <time name="total">    1.91    1.34</time>
   <energy>
    <i name="e_fr_energy">     -0.49721097 </i>
    <i name="e_wo_entrp">     -0.49721097 </i>
    <i name="e_0_energy">     -0.49721097 </i>
   </energy>
  </scstep>
  <scstep>
   <time name="total">    1.91    1.35</time>
   <energy>
    <i name="e_fr_energy">     -0.49744080 </i>
    <i name="e_wo_entrp">     -0.49744080 </i>
    <i name="e_0_energy">     -0.49744080 </i>
   </energy>
  </scstep>
  <scstep>
   <time name="total">    1.91    1.34</time>
   <energy>
    <i name="e_fr_energy">     -0.49750203 </i>
    <i name="e_wo_entrp">     -0.49750203 </i>
    <i name="e_0_energy">     -0.49750203 </i>
   </energy>
  </scstep>
  <scstep>
   <time name="total">    1.91    1.35</time>
   <energy>
    <i name="e_fr_energy">     -0.49749812 </i>
    <i name="e_wo_entrp">     -0.49749812 </i>
    <i name="e_0_energy">     -0.49749812 </i>
   </energy>
  </scstep>
  <scstep>
   <time name="total">    1.91    1.34</time>
   <energy>
    <i name="e_fr_energy">     -0.49749909 </i>
    <i name="e_wo_entrp">     -0.49749909 </i>
    <i name="e_0_energy">     -0.49749909 </i>
   </energy>
  </scstep>
  <scstep>
   <time name="total">    1.87    1.31</time>
   <energy>
    <i name="e_fr_energy">     -0.49749913 </i>
    <i name="e_wo_entrp">     -0.49749913 </i>
    <i name="e_0_energy">     -0.49749913 </i>
   </energy>
  </scstep>
  <scstep>
   <time name="total">    1.89    1.32</time>
   <energy>
    <i name="e_fr_energy">     -0.49749911 </i>
    <i name="e_wo_entrp">     -0.49749911 </i>
    <i name="e_0_energy">     -0.49749911 </i>
   </energy>
  </scstep>
  <scstep>
   <time name="total">    1.89    1.32</time>
   <energy>
    <i name="e_fr_energy">     -0.49749908 </i>
    <i name="e_wo_entrp">     -0.49749908 </i>
    <i name="e_0_energy">     -0.49749908 </i>
   </energy>
  </scstep>
  <kpoints>
   <generation param="Gamma">
    <v type="int" name="divisions">       4        4        4 </v>
    <v name="usershift">      0.00000000       0.00000000       0.00000000 </v>
    <v name="genvec1">      0.25000000       0.00000000       0.00000000 </v>
    <v name="genvec2">      0.00000000       0.25000000       0.00000000 </v>
    <v name="genvec3">      0.00000000       0.00000000       0.25000000 </v>
    <v name="shift">      0.00000000       0.00000000       0.00000000 </v>
   </generation>
   <varray name="kpointlist" >
    <v>       0.00000000       0.00000000       0.00000000 </v>
    <v>       0.25000000       0.00000000       0.00000000 </v>
    <v>       0.00000000       0.25000000       0.00000000 </v>
    <v>      -0.25000000       0.25000000       0.00000000 </v>
    <v>       0.50000000       0.00000000       0.00000000 </v>
    <v>       0.00000000       0.50000000       0.00000000 </v>
    <v>       0.50000000       0.50000000       0.00000000 </v>
    <v>       0.25000000       0.25000000       0.00000000 </v>
    <v>      -0.25000000       0.50000000       0.00000000 </v>
    <v>       0.50000000       0.25000000       0.00000000 </v>
    <v>       0.00000000       0.00000000       0.25000000 </v>
    <v>       0.25000000       0.00000000       0.25000000 </v>
    <v>       0.00000000       0.25000000       0.25000000 </v>
    <v>      -0.25000000       0.25000000       0.25000000 </v>
    <v>      -0.25000000       0.00000000       0.25000000 </v>
    <v>       0.00000000      -0.25000000       0.25000000 </v>
    <v>       0.25000000      -0.25000000       0.25000000 </v>
    <v>       0.50000000       0.00000000       0.25000000 </v>
    <v>       0.00000000       0.50000000       0.25000000 </v>
    <v>       0.50000000       0.50000000       0.25000000 </v>
    <v>       0.25000000       0.25000000       0.25000000 </v>
    <v>      -0.25000000       0.50000000       0.25000000 </v>
    <v>       0.50000000       0.25000000       0.25000000 </v>
    <v>      -0.25000000      -0.25000000       0.25000000 </v>
    <v>       0.25000000       0.50000000       0.25000000 </v>
    <v>       0.50000000      -0.25000000       0.25000000 </v>
    <v>       0.00000000       0.00000000       0.50000000 </v>
    <v>       0.25000000       0.00000000       0.50000000 </v>
    <v>       0.00000000       0.25000000       0.50000000 </v>
    <v>      -0.25000000       0.25000000       0.50000000 </v>
    <v>       0.50000000       0.00000000       0.50000000 </v>
    <v>       0.00000000       0.50000000       0.50000000 </v>
    <v>       0.50000000       0.50000000       0.50000000 </v>
    <v>       0.25000000       0.25000000       0.50000000 </v>
    <v>      -0.25000000       0.50000000       0.50000000 </v>
    <v>       0.50000000       0.25000000       0.50000000 </v>
   </varray>
   <varray name="weights" >
    <v>       0.01562500 </v>
    <v>       0.03125000 </v>
    <v>       0.03125000 </v>
    <v>       0.03125000 </v>
    <v>       0.01562500 </v>
    <v>       0.01562500 </v>
    <v>       0.01562500 </v>
    <v>       0.03125000 </v>
    <v>       0.03125000 </v>
    <v>       0.03125000 </v>
    <v>       0.03125000 </v>
    <v>       0.03125000 </v>
    <v>       0.03125000 </v>
    <v>       0.03125000 </v>
    <v>       0.03125000 </v>
    <v>       0.03125000 </v>
    <v>       0.03125000 </v>
    <v>       0.03125000 </v>
    <v>       0.03125000 </v>
    <v>       0.03125000 </v>
    <v>       0.03125000 </v>
    <v>       0.03125000 </v>
    <v>       0.03125000 </v>
    <v>       0.03125000 </v>
    <v>       0.03125000 </v>
    <v>       0.03125000 </v>
    <v>       0.01562500 </v>
    <v>       0.03125000 </v>
    <v>       0.03125000 </v>
    <v>       0.03125000 </v>
    <v>       0.01562500 </v>
    <v>       0.01562500 </v>
    <v>       0.01562500 </v>
    <v>       0.03125000 </v>
    <v>       0.03125000 </v>
    <v>       0.03125000 </v>
   </varray>
  </kpoints>
  <scstep>
   <time name="total">    2.41    1.87</time>
   <energy>
    <i name="e_fr_energy">     -0.48329137 </i>
    <i name="e_wo_entrp">     -0.48329137 </i>
    <i name="e_0_energy">     -0.48329137 </i>
   </energy>
  </scstep>
  <scstep>
   <time name="total">    2.50    1.94</time>
   <energy>
    <i name="e_fr_energy">     -0.48550786 </i>
    <i name="e_wo_entrp">     -0.48550786 </i>
    <i name="e_0_energy">     -0.48550786 </i>
   </energy>
  </scstep>
  <scstep>
   <time name="total">    2.52    1.96</time>
   <energy>
    <i name="e_fr_energy">     -0.46532982 </i>
    <i name="e_wo_entrp">     -0.46532982 </i>
    <i name="e_0_energy">     -0.46532982 </i>
   </energy>
  </scstep>
  <scstep>
   <time name="total">    2.51    1.95</time>
   <energy>
    <i name="e_fr_energy">     -0.47618225 </i>
    <i name="e_wo_entrp">     -0.47618225 </i>
    <i name="e_0_energy">     -0.47618225 </i>
   </energy>
  </scstep>
  <scstep>
   <time name="total">    2.54    1.97</time>
   <energy>
    <i name="e_fr_energy">     -0.49392123 </i>
    <i name="e_wo_entrp">     -0.49392123 </i>
    <i name="e_0_energy">     -0.49392123 </i>
   </energy>
  </scstep>
  <scstep>
   <time name="total">    2.50    1.93</time>
   <energy>
    <i name="e_fr_energy">     -0.49683997 </i>
    <i name="e_wo_entrp">     -0.49683997 </i>
    <i name="e_0_energy">     -0.49683997 </i>
   </energy>
  </scstep>
  <scstep>
   <time name="total">    2.55    1.97</time>
   <energy>
    <i name="e_fr_energy">     -0.49708211 </i>
    <i name="e_wo_entrp">     -0.49708211 </i>
    <i name="e_0_energy">     -0.49708211 </i>
   </energy>
  </scstep>
  <scstep>
   <time name="total">    2.51    1.95</time>
   <energy>
    <i name="e_fr_energy">     -0.49731303 </i>
    <i name="e_wo_entrp">     -0.49731303 </i>
    <i name="e_0_energy">     -0.49731303 </i>
   </energy>
  </scstep>
  <scstep>
   <time name="total">    2.51    1.95</time>
   <energy>
    <i name="e_fr_energy">     -0.49737798 </i>
    <i name="e_wo_entrp">     -0.49737798 </i>
    <i name="e_0_energy">     -0.49737798 </i>
   </energy>
  </scstep>
  <scstep>
   <time name="total">    2.51    1.95</time>
   <energy>
    <i name="e_fr_energy">     -0.49737314 </i>
    <i name="e_wo_entrp">     -0.49737314 </i>
    <i name="e_0_energy">     -0.49737314 </i>
   </energy>
  </scstep>
  <scstep>
   <time name="total">    2.51    1.95</time>
   <energy>
    <i name="e_fr_energy">     -0.49737423 </i>
    <i name="e_wo_entrp">     -0.49737423 </i>
    <i name="e_0_energy">     -0.49737423 </i>
   </energy>
  </scstep>
  <scstep>
   <time name="total">    2.48    1.91</time>
   <energy>
    <i name="e_fr_energy">     -0.49737425 </i>
    <i name="e_wo_entrp">     -0.49737425 </i>
    <i name="e_0_energy">     -0.49737425 </i>
   </energy>
  </scstep>
  <scstep>
   <time name="total">    2.49    1.92</time>
   <energy>
    <i name="e_fr_energy">     -0.49737435 </i>
    <i name="e_wo_entrp">     -0.49737435 </i>
    <i name="e_0_energy">     -0.49737435 </i>
   </energy>
  </scstep>
  <scstep>
   <time name="total">    2.51    1.93</time>
   <energy>
    <i name="e_fr_energy">     -0.49737423 </i>
    <i name="e_wo_entrp">     -0.49737423 </i>
    <i name="e_0_energy">     -0.49737423 </i>
   </energy>
  </scstep>
  <kpoints>
   <generation param="Gamma">
    <v type="int" name="divisions">       4        4        4 </v>
    <v name="usershift">      0.00000000       0.00000000       0.00000000 </v>
    <v name="genvec1">      0.25000000       0.00000000       0.00000000 </v>
    <v name="genvec2">      0.00000000       0.25000000       0.00000000 </v>
    <v name="genvec3">      0.00000000       0.00000000       0.25000000 </v>
    <v name="shift">      0.00000000       0.00000000       0.00000000 </v>
   </generation>
   <varray name="kpointlist" >
    <v>       0.00000000       0.00000000       0.00000000 </v>
    <v>       0.25000000       0.00000000       0.00000000 </v>
    <v>       0.50000000       0.00000000       0.00000000 </v>
    <v>       0.25000000       0.25000000       0.00000000 </v>
    <v>       0.00000000       0.00000000       0.25000000 </v>
    <v>       0.25000000       0.00000000       0.25000000 </v>
    <v>       0.00000000       0.25000000       0.25000000 </v>
    <v>       0.50000000       0.00000000       0.25000000 </v>
    <v>       0.25000000       0.25000000       0.25000000 </v>
    <v>      -0.25000000       0.50000000       0.25000000 </v>
    <v>       0.00000000       0.00000000       0.50000000 </v>
    <v>       0.25000000       0.00000000       0.50000000 </v>
    <v>       0.50000000       0.00000000       0.50000000 </v>
    <v>       0.25000000       0.25000000       0.50000000 </v>
   </varray>
   <varray name="weights" >
    <v>       0.01562500 </v>
    <v>       0.09375000 </v>
    <v>       0.04687500 </v>
    <v>       0.09375000 </v>
    <v>       0.03125000 </v>
    <v>       0.09375000 </v>
    <v>       0.09375000 </v>
    <v>       0.09375000 </v>
    <v>       0.09375000 </v>
    <v>       0.09375000 </v>
    <v>       0.01562500 </v>
    <v>       0.09375000 </v>
    <v>       0.04687500 </v>
    <v>       0.09375000 </v>
   </varray>
  </kpoints>
  <scstep>
   <time name="total">    1.41    0.83</time>
   <energy>
    <i name="e_fr_energy">     -0.48774724 </i>
    <i name="e_wo_entrp">     -0.48774724 </i>
    <i name="e_0_energy">     -0.48774724 </i>
   </energy>
  </scstep>
  <scstep>
   <time name="total">    1.40    0.83</time>
   <energy>
    <i name="e_fr_energy">     -0.48980004 </i>
    <i name="e_wo_entrp">     -0.48980004 </i>
    <i name="e_0_energy">     -0.48980004 </i>
   </energy>
  </scstep>
  <scstep>
   <time name="total">    1.41    0.84</time>
   <energy>
    <i name="e_fr_energy">     -0.47455747 </i>
    <i name="e_wo_entrp">     -0.47455747 </i>
    <i name="e_0_energy">     -0.47455747 </i>
   </energy>
  </scstep>
  <scstep>
   <time name="total">    1.42    0.84</time>
   <energy>
    <i name="e_fr_energy">     -0.48774869 </i>
    <i name="e_wo_entrp">     -0.48774869 </i>
    <i name="e_0_energy">     -0.48774869 </i>
   </energy>
  </scstep>
  <scstep>
   <time name="total">    1.43    0.85</time>
   <energy>
    <i name="e_fr_energy">     -0.50401581 </i>
    <i name="e_wo_entrp">     -0.50401581 </i>
    <i name="e_0_energy">     -0.50401581 </i>
   </energy>
  </scstep>
  <scstep>
   <time name="total">    1.39    0.82</time>
   <energy>
    <i name="e_fr_energy">     -0.50685461 </i>
    <i name="e_wo_entrp">     -0.50685461 </i>
    <i name="e_0_energy">     -0.50685461 </i>
   </energy>
  </scstep>
  <scstep>
   <time name="total">    1.42    0.85</time>
   <energy>
    <i name="e_fr_energy">     -0.50709764 </i>
    <i name="e_wo_entrp">     -0.50709764 </i>
    <i name="e_0_energy">     -0.50709764 </i>
   </energy>
  </scstep>
  <scstep>
   <time name="total">    1.41    0.84</time>
   <energy>
    <i name="e_fr_energy">     -0.50736349 </i>
    <i name="e_wo_entrp">     -0.50736349 </i>
    <i name="e_0_energy">     -0.50736349 </i>
   </energy>
  </scstep>
  <scstep>
   <time name="total">    1.43    0.88</time>
   <energy>
    <i name="e_fr_energy">     -0.50738639 </i>
    <i name="e_wo_entrp">     -0.50738639 </i>
    <i name="e_0_energy">     -0.50738639 </i>
   </energy>
  </scstep>
  <scstep>
   <time name="total">    1.42    0.85</time>
   <energy>
    <i name="e_fr_energy">     -0.50738757 </i>
    <i name="e_wo_entrp">     -0.50738757 </i>
    <i name="e_0_energy">     -0.50738757 </i>
   </energy>
  </scstep>
  <scstep>
   <time name="total">    1.42    0.85</time>
   <energy>
    <i name="e_fr_energy">     -0.50738666 </i>
    <i name="e_wo_entrp">     -0.50738666 </i>
    <i name="e_0_energy">     -0.50738666 </i>
   </energy>
  </scstep>
  <scstep>
   <time name="total">    1.38    0.81</time>
   <energy>
    <i name="e_fr_energy">     -0.50738692 </i>
    <i name="e_wo_entrp">     -0.50738692 </i>
    <i name="e_0_energy">     -0.50738692 </i>
   </energy>
  </scstep>
  <scstep>
   <time name="total">    1.41    0.84</time>
   <energy>
    <i name="e_fr_energy">     -0.50738687 </i>
    <i name="e_wo_entrp">     -0.50738687 </i>
    <i name="e_0_energy">     -0.50738687 </i>
   </energy>
  </scstep>
  <scstep>
   <time name="total">    1.38    0.81</time>
   <energy>
    <i name="e_fr_energy">     -0.50738688 </i>
    <i name="e_wo_entrp">     -0.50738688 </i>
    <i name="e_0_energy">     -0.50738688 </i>
   </energy>
  </scstep>
  <kpoints>
   <generation param="Gamma">
    <v type="int" name="divisions">       4        4        4 </v>
    <v name="usershift">      0.00000000       0.00000000       0.00000000 </v>
    <v name="genvec1">      0.25000000       0.00000000       0.00000000 </v>
    <v name="genvec2">      0.00000000       0.25000000       0.00000000 </v>
    <v name="genvec3">      0.00000000       0.00000000       0.25000000 </v>
    <v name="shift">      0.00000000       0.00000000       0.00000000 </v>
   </generation>
   <varray name="kpointlist" >
    <v>       0.00000000       0.00000000       0.00000000 </v>
    <v>       0.25000000       0.00000000       0.00000000 </v>
    <v>       0.50000000       0.00000000       0.00000000 </v>
    <v>       0.25000000       0.25000000       0.00000000 </v>
    <v>       0.00000000       0.00000000       0.25000000 </v>
    <v>       0.25000000       0.00000000       0.25000000 </v>
    <v>       0.00000000       0.25000000       0.25000000 </v>
    <v>       0.50000000       0.00000000       0.25000000 </v>
    <v>       0.25000000       0.25000000       0.25000000 </v>
    <v>       0.00000000       0.00000000       0.50000000 </v>
    <v>       0.25000000       0.00000000       0.50000000 </v>
    <v>       0.50000000       0.00000000       0.50000000 </v>
    <v>       0.25000000       0.25000000       0.50000000 </v>
   </varray>
   <varray name="weights" >
    <v>       0.01562500 </v>
    <v>       0.09375000 </v>
    <v>       0.04687500 </v>
    <v>       0.09375000 </v>
    <v>       0.03125000 </v>
    <v>       0.09375000 </v>
    <v>       0.09375000 </v>
    <v>       0.09375000 </v>
    <v>       0.18750000 </v>
    <v>       0.01562500 </v>
    <v>       0.09375000 </v>
    <v>       0.04687500 </v>
    <v>       0.09375000 </v>
   </varray>
  </kpoints>
  <varray name="dielectric_dft" >
   <v>       2.48125988       0.00000000       0.00000000 </v>
   <v>       0.00000000       2.48125988       0.00000000 </v>
   <v>       0.00000000      -0.00000000       2.51378172 </v>
  </varray>
  <varray name="epsilon" >
   <v>       2.48125988       0.00000000       0.00000000 </v>
   <v>       0.00000000       2.48125988       0.00000000 </v>
   <v>       0.00000000      -0.00000000       2.51378172 </v>
  </varray>
  <kpoints>
   <generation param="Gamma">
    <v type="int" name="divisions">       4        4        4 </v>
    <v name="usershift">      0.00000000       0.00000000       0.00000000 </v>
    <v name="genvec1">      0.25000000       0.00000000       0.00000000 </v>
    <v name="genvec2">      0.00000000       0.25000000       0.00000000 </v>
    <v name="genvec3">      0.00000000       0.00000000       0.25000000 </v>
    <v name="shift">      0.00000000       0.00000000       0.00000000 </v>
   </generation>
   <varray name="kpointlist" >
    <v>       0.00000000       0.00000000       0.00000000 </v>
    <v>       0.25000000       0.00000000       0.00000000 </v>
    <v>       0.50000000       0.00000000       0.00000000 </v>
    <v>       0.25000000       0.25000000       0.00000000 </v>
    <v>       0.00000000       0.00000000       0.25000000 </v>
    <v>       0.25000000       0.00000000       0.25000000 </v>
    <v>       0.00000000       0.25000000       0.25000000 </v>
    <v>       0.50000000       0.00000000       0.25000000 </v>
    <v>       0.25000000       0.25000000       0.25000000 </v>
    <v>       0.00000000       0.00000000       0.50000000 </v>
    <v>       0.25000000       0.00000000       0.50000000 </v>
    <v>       0.50000000       0.00000000       0.50000000 </v>
    <v>       0.25000000       0.25000000       0.50000000 </v>
   </varray>
   <varray name="weights" >
    <v>       0.01562500 </v>
    <v>       0.09375000 </v>
    <v>       0.04687500 </v>
    <v>       0.09375000 </v>
    <v>       0.03125000 </v>
    <v>       0.09375000 </v>
    <v>       0.09375000 </v>
    <v>       0.09375000 </v>
    <v>       0.18750000 </v>
    <v>       0.01562500 </v>
    <v>       0.09375000 </v>
    <v>       0.04687500 </v>
    <v>       0.09375000 </v>
   </varray>
  </kpoints>
  <array name="born_charges" >
   <dimension dim="1">ion</dimension>
   <set>
    <v>       2.98024933       0.00000000      -0.00000000 </v>
    <v>       0.00000000       3.62095098      -0.32196688 </v>
    <v>       0.00000000       0.27850047       3.42560462 </v>
   </set>
   <set>
    <v>       3.46077557       0.27743195       0.27883150 </v>
    <v>       0.27743195       3.14042474       0.16098344 </v>
    <v>      -0.24118848      -0.13925023       3.42560462 </v>
   </set>
   <set>
    <v>       3.46077557      -0.27743195      -0.27883150 </v>
    <v>      -0.27743195       3.14042474       0.16098344 </v>
    <v>       0.24118848      -0.13925023       3.42560462 </v>
   </set>
   <set>
    <v>      -1.31101495      -0.49332346      -0.30988962 </v>
    <v>      -0.43593307      -1.98958520      -0.67887565 </v>
    <v>      -0.24307410      -0.72153181      -1.71280231 </v>
   </set>
   <set>
    <v>      -2.22232252      -0.09021060       0.74286836 </v>
    <v>      -0.03282021      -1.07827763       0.07106554 </v>
    <v>       0.74640193       0.15025756      -1.71280231 </v>
   </set>
   <set>
    <v>      -1.41756276       0.49744848      -0.43297875 </v>
    <v>       0.55483887      -1.88303739       0.60781010 </v>
    <v>      -0.50332783       0.57127425      -1.71280231 </v>
   </set>
   <set>
    <v>      -1.31101495       0.49332346       0.30988962 </v>
    <v>       0.43593307      -1.98958520      -0.67887565 </v>
    <v>       0.24307410      -0.72153181      -1.71280231 </v>
   </set>
   <set>
    <v>      -2.22232252       0.09021060      -0.74286836 </v>
    <v>       0.03282021      -1.07827763       0.07106554 </v>
    <v>      -0.74640193       0.15025756      -1.71280231 </v>
   </set>
   <set>
    <v>      -1.41756276      -0.49744848       0.43297875 </v>
    <v>      -0.55483887      -1.88303739       0.60781010 </v>
    <v>       0.50332783       0.57127425      -1.71280231 </v>
   </set>
  </array>
  <time name="totalsc">  233.70  128.49</time>
  <eigenvalues>
   <array>
    <dimension dim="1">band</dimension>
    <dimension dim="2">kpoint</dimension>
    <dimension dim="3">spin</dimension>
    <field>eigene</field>
    <field>occ</field>
    <set>
     <set comment="spin 1">
      <set comment="kpoint 1">
       <r>  -18.1706    1.0000 </r>
       <r>  -16.6190    1.0000 </r>
       <r>  -16.6190    1.0000 </r>
       <r>  -15.9509    1.0000 </r>
       <r>  -15.9411    1.0000 </r>
       <r>  -15.9411    1.0000 </r>
       <r>   -6.8777    1.0000 </r>
       <r>   -6.8777    1.0000 </r>
       <r>   -4.1466    1.0000 </r>
       <r>   -4.0611    1.0000 </r>
       <r>   -3.9109    1.0000 </r>
       <r>   -3.9109    1.0000 </r>
       <r>   -1.6853    1.0000 </r>
       <r>   -1.6853    1.0000 </r>
       <r>   -1.3721    1.0000 </r>
       <r>   -1.1502    1.0000 </r>
       <r>   -0.1549    1.0000 </r>
       <r>   -0.1549    1.0000 </r>
       <r>   -0.0962    1.0000 </r>
       <r>    0.2626    1.0000 </r>
       <r>    0.2626    1.0000 </r>
       <r>    0.4566    1.0000 </r>
       <r>    1.0052    1.0000 </r>
       <r>    1.0052    1.0000 </r>
       <r>    7.3226    0.0000 </r>
       <r>   10.6070    0.0000 </r>
       <r>   10.6070    0.0000 </r>
       <r>   11.2378    0.0000 </r>
       <r>   11.2378    0.0000 </r>
      </set>
      <set comment="kpoint 2">
       <r>  -17.9867    1.0000 </r>
       <r>  -16.8185    1.0000 </r>
       <r>  -16.5924    1.0000 </r>
       <r>  -16.0181    1.0000 </r>
       <r>  -15.9746    1.0000 </r>
       <r>  -15.9412    1.0000 </r>
       <r>   -6.9555    1.0000 </r>
       <r>   -6.5081    1.0000 </r>
       <r>   -4.2172    1.0000 </r>
       <r>   -4.1534    1.0000 </r>
       <r>   -4.0306    1.0000 </r>
       <r>   -3.6192    1.0000 </r>
       <r>   -1.8722    1.0000 </r>
       <r>   -1.5562    1.0000 </r>
       <r>   -1.3457    1.0000 </r>
       <r>   -0.8967    1.0000 </r>
       <r>   -0.6962    1.0000 </r>
       <r>   -0.2383    1.0000 </r>
       <r>   -0.1584    1.0000 </r>
       <r>    0.1800    1.0000 </r>
       <r>    0.2776    1.0000 </r>
       <r>    0.4213    1.0000 </r>
       <r>    1.0539    1.0000 </r>
       <r>    1.1421    1.0000 </r>
       <r>    8.2323    0.0000 </r>
       <r>   10.6693    0.0000 </r>
       <r>   10.7190    0.0000 </r>
       <r>   11.2057    0.0000 </r>
       <r>   11.4831    0.0000 </r>
      </set>
      <set comment="kpoint 3">
       <r>  -17.6637    1.0000 </r>
       <r>  -17.1806    1.0000 </r>
       <r>  -16.5634    1.0000 </r>
       <r>  -16.0445    1.0000 </r>
       <r>  -15.9999    1.0000 </r>
       <r>  -15.9669    1.0000 </r>
       <r>   -7.0290    1.0000 </r>
       <r>   -6.0428    1.0000 </r>
       <r>   -4.5561    1.0000 </r>
       <r>   -4.0949    1.0000 </r>
       <r>   -4.0873    1.0000 </r>
       <r>   -3.2822    1.0000 </r>
       <r>   -1.8229    1.0000 </r>
       <r>   -1.6211    1.0000 </r>
       <r>   -1.4347    1.0000 </r>
       <r>   -1.0008    1.0000 </r>
       <r>   -0.7914    1.0000 </r>
       <r>   -0.4791    1.0000 </r>
       <r>   -0.2856    1.0000 </r>
       <r>    0.1964    1.0000 </r>
       <r>    0.2826    1.0000 </r>
       <r>    0.5605    1.0000 </r>
       <r>    1.0153    1.0000 </r>
       <r>    1.2413    1.0000 </r>
       <r>    9.6348    0.0000 </r>
       <r>   10.3705    0.0000 </r>
       <r>   10.9649    0.0000 </r>
       <r>   10.9876    0.0000 </r>
       <r>   11.9982    0.0000 </r>
      </set>
      <set comment="kpoint 4">
       <r>  -17.6742    1.0000 </r>
       <r>  -17.1503    1.0000 </r>
       <r>  -16.5941    1.0000 </r>
       <r>  -16.0398    1.0000 </r>
       <r>  -15.9975    1.0000 </r>
       <r>  -15.9637    1.0000 </r>
       <r>   -7.0572    1.0000 </r>
       <r>   -5.9050    1.0000 </r>
       <r>   -4.8489    1.0000 </r>
       <r>   -4.0728    1.0000 </r>
       <r>   -3.9309    1.0000 </r>
       <r>   -3.2902    1.0000 </r>
       <r>   -1.7822    1.0000 </r>
       <r>   -1.6277    1.0000 </r>
       <r>   -1.4644    1.0000 </r>
       <r>   -0.8960    1.0000 </r>
       <r>   -0.8474    1.0000 </r>
       <r>   -0.4256    1.0000 </r>
       <r>   -0.2430    1.0000 </r>
       <r>   -0.0077    1.0000 </r>
       <r>    0.2531    1.0000 </r>
       <r>    0.6687    1.0000 </r>
       <r>    0.9805    1.0000 </r>
       <r>    1.2632    1.0000 </r>
       <r>    9.4758    0.0000 </r>
       <r>   10.7353    0.0000 </r>
       <r>   10.7702    0.0000 </r>
       <r>   11.4389    0.0000 </r>
       <r>   11.5807    0.0000 </r>
      </set>
      <set comment="kpoint 5">
       <r>  -18.0454    1.0000 </r>
       <r>  -17.1787    1.0000 </r>
       <r>  -16.1687    1.0000 </r>
       <r>  -15.9546    1.0000 </r>
       <r>  -15.9529    1.0000 </r>
       <r>  -15.9212    1.0000 </r>
       <r>   -7.6505    1.0000 </r>
       <r>   -5.8666    1.0000 </r>
       <r>   -4.3680    1.0000 </r>
       <r>   -4.1802    1.0000 </r>
       <r>   -4.1277    1.0000 </r>
       <r>   -3.5537    1.0000 </r>
       <r>   -1.7664    1.0000 </r>
       <r>   -1.4399    1.0000 </r>
       <r>   -1.3074    1.0000 </r>
       <r>   -0.9462    1.0000 </r>
       <r>   -0.4216    1.0000 </r>
       <r>   -0.2921    1.0000 </r>
       <r>   -0.1645    1.0000 </r>
       <r>   -0.1592    1.0000 </r>
       <r>    0.1788    1.0000 </r>
       <r>    0.6282    1.0000 </r>
       <r>    1.0948    1.0000 </r>
       <r>    1.1788    1.0000 </r>
       <r>    7.9351    0.0000 </r>
       <r>   10.4144    0.0000 </r>
       <r>   10.6317    0.0000 </r>
       <r>   10.6455    0.0000 </r>
       <r>   11.6493    0.0000 </r>
      </set>
      <set comment="kpoint 6">
       <r>  -17.8782    1.0000 </r>
       <r>  -17.1548    1.0000 </r>
       <r>  -16.3539    1.0000 </r>
       <r>  -16.0135    1.0000 </r>
       <r>  -15.9916    1.0000 </r>
       <r>  -15.9391    1.0000 </r>
       <r>   -7.3264    1.0000 </r>
       <r>   -5.9238    1.0000 </r>
       <r>   -4.6316    1.0000 </r>
       <r>   -4.0941    1.0000 </r>
       <r>   -3.8298    1.0000 </r>
       <r>   -3.6553    1.0000 </r>
       <r>   -1.9386    1.0000 </r>
       <r>   -1.4318    1.0000 </r>
       <r>   -1.3048    1.0000 </r>
       <r>   -0.9640    1.0000 </r>
       <r>   -0.6425    1.0000 </r>
       <r>   -0.3012    1.0000 </r>
       <r>   -0.1655    1.0000 </r>
       <r>    0.0596    1.0000 </r>
       <r>    0.3186    1.0000 </r>
       <r>    0.4873    1.0000 </r>
       <r>    1.0128    1.0000 </r>
       <r>    1.1509    1.0000 </r>
       <r>    8.7065    0.0000 </r>
       <r>   10.4512    0.0000 </r>
       <r>   10.7317    0.0000 </r>
       <r>   10.9650    0.0000 </r>
       <r>   11.6985    0.0000 </r>
      </set>
      <set comment="kpoint 7">
       <r>  -17.8810    1.0000 </r>
       <r>  -17.1413    1.0000 </r>
       <r>  -16.3853    1.0000 </r>
       <r>  -16.0144    1.0000 </r>
       <r>  -15.9582    1.0000 </r>
       <r>  -15.9505    1.0000 </r>
       <r>   -7.3286    1.0000 </r>
       <r>   -5.9288    1.0000 </r>
       <r>   -4.6324    1.0000 </r>
       <r>   -4.1170    1.0000 </r>
       <r>   -3.8568    1.0000 </r>
       <r>   -3.5705    1.0000 </r>
       <r>   -1.8923    1.0000 </r>
       <r>   -1.3901    1.0000 </r>
       <r>   -1.3586    1.0000 </r>
       <r>   -1.1080    1.0000 </r>
       <r>   -0.6926    1.0000 </r>
       <r>   -0.1993    1.0000 </r>
       <r>   -0.1034    1.0000 </r>
       <r>    0.0421    1.0000 </r>
       <r>    0.3868    1.0000 </r>
       <r>    0.4109    1.0000 </r>
       <r>    0.9063    1.0000 </r>
       <r>    1.2526    1.0000 </r>
       <r>    8.6694    0.0000 </r>
       <r>   10.5736    0.0000 </r>
       <r>   10.8882    0.0000 </r>
       <r>   11.0255    0.0000 </r>
       <r>   11.5507    0.0000 </r>
      </set>
      <set comment="kpoint 8">
       <r>  -17.6269    1.0000 </r>
       <r>  -17.1609    1.0000 </r>
       <r>  -16.6327    1.0000 </r>
       <r>  -16.0513    1.0000 </r>
       <r>  -16.0063    1.0000 </r>
       <r>  -15.9576    1.0000 </r>
       <r>   -6.9551    1.0000 </r>
       <r>   -5.9791    1.0000 </r>
       <r>   -4.8522    1.0000 </r>
       <r>   -4.0786    1.0000 </r>
       <r>   -3.7930    1.0000 </r>
       <r>   -3.4625    1.0000 </r>
       <r>   -1.8844    1.0000 </r>
       <r>   -1.7927    1.0000 </r>
       <r>   -1.2410    1.0000 </r>
       <r>   -1.0496    1.0000 </r>
       <r>   -0.5788    1.0000 </r>
       <r>   -0.4812    1.0000 </r>
       <r>   -0.1337    1.0000 </r>
       <r>    0.1313    1.0000 </r>
       <r>    0.3600    1.0000 </r>
       <r>    0.5981    1.0000 </r>
       <r>    0.8242    1.0000 </r>
       <r>    1.1742    1.0000 </r>
       <r>    9.9095    0.0000 </r>
       <r>   10.4292    0.0000 </r>
       <r>   10.8811    0.0000 </r>
       <r>   11.3069    0.0000 </r>
       <r>   11.8016    0.0000 </r>
      </set>
      <set comment="kpoint 9">
       <r>  -17.6287    1.0000 </r>
       <r>  -17.1617    1.0000 </r>
       <r>  -16.6241    1.0000 </r>
       <r>  -16.0419    1.0000 </r>
       <r>  -16.0178    1.0000 </r>
       <r>  -15.9629    1.0000 </r>
       <r>   -6.9631    1.0000 </r>
       <r>   -5.8790    1.0000 </r>
       <r>   -5.0199    1.0000 </r>
       <r>   -4.0425    1.0000 </r>
       <r>   -3.7646    1.0000 </r>
       <r>   -3.4771    1.0000 </r>
       <r>   -1.9196    1.0000 </r>
       <r>   -1.6271    1.0000 </r>
       <r>   -1.4073    1.0000 </r>
       <r>   -0.9240    1.0000 </r>
       <r>   -0.6617    1.0000 </r>
       <r>   -0.4506    1.0000 </r>
       <r>   -0.0601    1.0000 </r>
       <r>    0.0819    1.0000 </r>
       <r>    0.3178    1.0000 </r>
       <r>    0.6058    1.0000 </r>
       <r>    0.8648    1.0000 </r>
       <r>    1.1292    1.0000 </r>
       <r>    9.7413    0.0000 </r>
       <r>   10.6613    0.0000 </r>
       <r>   10.9909    0.0000 </r>
       <r>   11.3733    0.0000 </r>
       <r>   11.5198    0.0000 </r>
      </set>
      <set comment="kpoint 10">
       <r>  -17.6924    1.0000 </r>
       <r>  -17.6924    1.0000 </r>
       <r>  -15.9929    1.0000 </r>
       <r>  -15.9567    1.0000 </r>
       <r>  -15.9567    1.0000 </r>
       <r>  -15.9118    1.0000 </r>
       <r>   -7.9407    1.0000 </r>
       <r>   -4.9393    1.0000 </r>
       <r>   -4.9393    1.0000 </r>
       <r>   -4.2578    1.0000 </r>
[...]
       <r>    1.2160    1.0000 </r>
       <r>    9.3077    0.0000 </r>
       <r>    9.3077    0.0000 </r>
       <r>   10.4354    0.0000 </r>
       <r>   10.9912    0.0000 </r>
       <r>   10.9912    0.0000 </r>
      </set>
      <set comment="kpoint 11">
       <r>  -17.6410    1.0000 </r>
       <r>  -17.5005    1.0000 </r>
       <r>  -16.2487    1.0000 </r>
       <r>  -16.0266    1.0000 </r>
       <r>  -15.9724    1.0000 </r>
       <r>  -15.9412    1.0000 </r>
       <r>   -7.5152    1.0000 </r>
       <r>   -5.3533    1.0000 </r>
       <r>   -5.0113    1.0000 </r>
       <r>   -4.0952    1.0000 </r>
       <r>   -3.9714    1.0000 </r>
       <r>   -3.4578    1.0000 </r>
       <r>   -1.7484    1.0000 </r>
       <r>   -1.7299    1.0000 </r>
       <r>   -1.2087    1.0000 </r>
       <r>   -0.9347    1.0000 </r>
       <r>   -0.7514    1.0000 </r>
       <r>   -0.2527    1.0000 </r>
       <r>   -0.1564    1.0000 </r>
       <r>    0.0443    1.0000 </r>
       <r>    0.1871    1.0000 </r>
       <r>    0.7958    1.0000 </r>
       <r>    0.8302    1.0000 </r>
       <r>    1.1412    1.0000 </r>
       <r>    9.6748    0.0000 </r>
       <r>    9.8370    0.0000 </r>
       <r>   10.7246    0.0000 </r>
       <r>   11.0266    0.0000 </r>
       <r>   11.3846    0.0000 </r>
      </set>
      <set comment="kpoint 12">
       <r>  -17.5857    1.0000 </r>
       <r>  -17.1399    1.0000 </r>
       <r>  -16.7041    1.0000 </r>
       <r>  -16.0731    1.0000 </r>
       <r>  -15.9921    1.0000 </r>
       <r>  -15.9577    1.0000 </r>
       <r>   -6.8749    1.0000 </r>
       <r>   -5.9125    1.0000 </r>
       <r>   -5.0460    1.0000 </r>
       <r>   -3.9965    1.0000 </r>
       <r>   -3.7042    1.0000 </r>
       <r>   -3.6148    1.0000 </r>
       <r>   -1.9299    1.0000 </r>
       <r>   -1.9227    1.0000 </r>
       <r>   -1.1428    1.0000 </r>
       <r>   -0.8277    1.0000 </r>
       <r>   -0.7455    1.0000 </r>
       <r>   -0.2748    1.0000 </r>
       <r>    0.0236    1.0000 </r>
       <r>    0.1902    1.0000 </r>
       <r>    0.3986    1.0000 </r>
       <r>    0.4039    1.0000 </r>
       <r>    0.6993    1.0000 </r>
       <r>    1.1199    1.0000 </r>
       <r>   10.2244    0.0000 </r>
       <r>   10.7224    0.0000 </r>
       <r>   11.0163    0.0000 </r>
       <r>   11.2006    0.0000 </r>
       <r>   11.5353    0.0000 </r>
      </set>
      <set comment="kpoint 13">
       <r>  -17.5737    1.0000 </r>
       <r>  -17.1847    1.0000 </r>
       <r>  -16.6514    1.0000 </r>
       <r>  -16.0613    1.0000 </r>
       <r>  -15.9915    1.0000 </r>
       <r>  -15.9915    1.0000 </r>
       <r>   -6.8554    1.0000 </r>
       <r>   -5.8691    1.0000 </r>
       <r>   -5.1540    1.0000 </r>
       <r>   -3.8971    1.0000 </r>
       <r>   -3.7942    1.0000 </r>
       <r>   -3.6154    1.0000 </r>
       <r>   -1.9734    1.0000 </r>
       <r>   -1.7461    1.0000 </r>
       <r>   -1.2633    1.0000 </r>
       <r>   -0.8997    1.0000 </r>
       <r>   -0.6211    1.0000 </r>
       <r>   -0.4215    1.0000 </r>
       <r>    0.1502    1.0000 </r>
       <r>    0.2565    1.0000 </r>
       <r>    0.3289    1.0000 </r>
       <r>    0.5718    1.0000 </r>
       <r>    0.7165    1.0000 </r>
       <r>    0.9246    1.0000 </r>
       <r>   10.1745    0.0000 </r>
       <r>   10.6500    0.0000 </r>
       <r>   10.9620    0.0000 </r>
       <r>   11.3036    0.0000 </r>
       <r>   11.7211    0.0000 </r>
      </set>
     </set>
    </set>
   </array>
  </eigenvalues>
  <separator name="orbital magnetization" >
   <v name="MAGDIPOLOUT">      0.00000000      0.00000000      0.00000000</v>
  </separator>
  <dos>
   <i name="efermi">      1.78444694 </i>
   <total>
    <array>
     <dimension dim="1">gridpoints</dimension>
     <dimension dim="2">spin</dimension>
     <field>energy</field>
     <field>total</field>
     <field>integrated</field>
     <set>
      <set comment="spin 1">
       <r>   -19.6791     0.0000     0.0000 </r>
       <r>   -19.5685     0.0000     0.0000 </r>
       <r>   -19.4578     0.0000     0.0000 </r>
       <r>   -19.3472     0.0000     0.0000 </r>
       <r>   -19.2366     0.0000     0.0000 </r>
       <r>   -19.1260     0.0000     0.0000 </r>
       <r>   -19.0154     0.0000     0.0000 </r>
       <r>   -18.9048     0.0000     0.0000 </r>
       <r>   -18.7941     0.0000     0.0000 </r>
       <r>   -18.6835     0.0000     0.0000 </r>
       <r>   -18.5729     0.0000     0.0000 </r>
       <r>   -18.4623     0.0000     0.0000 </r>
       <r>   -18.3517     0.0015     0.0002 </r>
       <r>   -18.2410     0.0455     0.0052 </r>
       <r>   -18.1304     0.2561     0.0335 </r>
       <r>   -18.0198     0.9592     0.1396 </r>
       <r>   -17.9092     2.1802     0.3808 </r>
       <r>   -17.7986     2.2491     0.6296 </r>
       <r>   -17.6879     3.1527     0.9783 </r>
       <r>   -17.5773     6.7055     1.7201 </r>
       <r>   -17.4667     3.7476     2.1347 </r>
       <r>   -17.3561     0.7694     2.2198 </r>
       <r>   -17.2455     1.6645     2.4039 </r>
       <r>   -17.1349     7.3301     3.2147 </r>
       <r>   -17.0242     4.7076     3.7355 </r>
       <r>   -16.9136     0.5623     3.7977 </r>
       <r>   -16.8030     0.9827     3.9064 </r>
       <r>   -16.6924     2.7478     4.2104 </r>
       <r>   -16.5818     6.4549     4.9244 </r>
       <r>   -16.4711     3.7510     5.3393 </r>
       <r>   -16.3605     1.9987     5.5604 </r>
       <r>   -16.2499     2.2049     5.8043 </r>
       <r>   -16.1393     3.0333     6.1399 </r>
       <r>   -16.0287    16.1419     7.9255 </r>
       <r>   -15.9180    27.0819    10.9212 </r>
       <r>   -15.8074     9.2158    11.9407 </r>
       <r>   -15.6968     0.5321    11.9995 </r>
       <r>   -15.5862     0.0042    12.0000 </r>
       <r>   -15.4756     0.0000    12.0000 </r>
       <r>   -15.3649     0.0000    12.0000 </r>
       <r>   -15.2543     0.0000    12.0000 </r>
       <r>   -15.1437     0.0000    12.0000 </r>
       <r>   -15.0331     0.0000    12.0000 </r>
       <r>   -14.9225     0.0000    12.0000 </r>
       <r>   -14.8119     0.0000    12.0000 </r>
       <r>   -14.7012     0.0000    12.0000 </r>
       <r>   -14.5906     0.0000    12.0000 </r>
       <r>   -14.4800     0.0000    12.0000 </r>
       <r>   -14.3694     0.0000    12.0000 </r>
       <r>   -14.2588     0.0000    12.0000 </r>
       <r>   -14.1481     0.0000    12.0000 </r>
       <r>   -14.0375     0.0000    12.0000 </r>
       <r>   -13.9269     0.0000    12.0000 </r>
       <r>   -13.8163     0.0000    12.0000 </r>
       <r>   -13.7057     0.0000    12.0000 </r>
       <r>   -13.5950     0.0000    12.0000 </r>
       <r>   -13.4844     0.0000    12.0000 </r>
       <r>   -13.3738     0.0000    12.0000 </r>
       <r>   -13.2632     0.0000    12.0000 </r>
       <r>   -13.1526     0.0000    12.0000 </r>
       <r>   -13.0419     0.0000    12.0000 </r>
       <r>   -12.9313     0.0000    12.0000 </r>
       <r>   -12.8207     0.0000    12.0000 </r>
       <r>   -12.7101     0.0000    12.0000 </r>
       <r>   -12.5995     0.0000    12.0000 </r>
       <r>   -12.4889     0.0000    12.0000 </r>
       <r>   -12.3782     0.0000    12.0000 </r>
       <r>   -12.2676     0.0000    12.0000 </r>
       <r>   -12.1570     0.0000    12.0000 </r>
       <r>   -12.0464     0.0000    12.0000 </r>
       <r>   -11.9358     0.0000    12.0000 </r>
       <r>   -11.8251     0.0000    12.0000 </r>
       <r>   -11.7145     0.0000    12.0000 </r>
       <r>   -11.6039     0.0000    12.0000 </r>
       <r>   -11.4933     0.0000    12.0000 </r>
       <r>   -11.3827     0.0000    12.0000 </r>
       <r>   -11.2720     0.0000    12.0000 </r>
       <r>   -11.1614     0.0000    12.0000 </r>
       <r>   -11.0508     0.0000    12.0000 </r>
       <r>   -10.9402     0.0000    12.0000 </r>
       <r>   -10.8296     0.0000    12.0000 </r>
       <r>   -10.7190     0.0000    12.0000 </r>
       <r>   -10.6083     0.0000    12.0000 </r>
       <r>   -10.4977     0.0000    12.0000 </r>
       <r>   -10.3871     0.0000    12.0000 </r>
       <r>   -10.2765     0.0000    12.0000 </r>
       <r>   -10.1659     0.0000    12.0000 </r>
       <r>   -10.0552     0.0000    12.0000 </r>
       <r>    -9.9446     0.0000    12.0000 </r>
       <r>    -9.8340     0.0000    12.0000 </r>
       <r>    -9.7234     0.0000    12.0000 </r>
       <r>    -9.6128     0.0000    12.0000 </r>
       <r>    -9.5021     0.0000    12.0000 </r>
       <r>    -9.3915     0.0000    12.0000 </r>
       <r>    -9.2809     0.0000    12.0000 </r>
       <r>    -9.1703     0.0000    12.0000 </r>
       <r>    -9.0597     0.0000    12.0000 </r>
       <r>    -8.9490     0.0000    12.0000 </r>
       <r>    -8.8384     0.0000    12.0000 </r>
       <r>    -8.7278     0.0000    12.0000 </r>
       <r>    -8.6172     0.0000    12.0000 </r>
       <r>    -8.5066     0.0000    12.0000 </r>
       <r>    -8.3960     0.0000    12.0000 </r>
       <r>    -8.2853     0.0000    12.0000 </r>
       <r>    -8.1747     0.0001    12.0000 </r>
       <r>    -8.0641     0.0113    12.0013 </r>
       <r>    -7.9535     0.1095    12.0134 </r>
       <r>    -7.8429     0.1398    12.0289 </r>
       <r>    -7.7322     0.0929    12.0391 </r>
       <r>    -7.6216     0.4129    12.0848 </r>
       <r>    -7.5110     0.9708    12.1922 </r>
       <r>    -7.4004     1.2298    12.3282 </r>
       <r>    -7.2898     1.9592    12.5449 </r>
       <r>    -7.1791     1.0377    12.6597 </r>
       <r>    -7.0685     1.3740    12.8117 </r>
       <r>    -6.9579     4.6061    13.3212 </r>
       <r>    -6.8473     4.7712    13.8490 </r>
       <r>    -6.7367     1.5291    14.0182 </r>
       <r>    -6.6261     0.1975    14.0400 </r>
       <r>    -6.5154     0.6978    14.1172 </r>
       <r>    -6.4048     0.7956    14.2052 </r>
       <r>    -6.2942     0.1203    14.2185 </r>
       <r>    -6.1836     0.0255    14.2214 </r>
       <r>    -6.0730     0.5207    14.2790 </r>
       <r>    -5.9623     3.4064    14.6558 </r>
       <r>    -5.8517     6.9637    15.4261 </r>
       <r>    -5.7411     3.0034    15.7583 </r>
       <r>    -5.6305     0.2056    15.7811 </r>
       <r>    -5.5199     0.0174    15.7830 </r>
       <r>    -5.4092     0.3483    15.8215 </r>
       <r>    -5.2986     0.9939    15.9315 </r>
       <r>    -5.1880     0.9144    16.0326 </r>
       <r>    -5.0774     2.1792    16.2737 </r>
       <r>    -4.9668     3.9057    16.7057 </r>
       <r>    -4.8561     2.9918    17.0367 </r>
       <r>    -4.7455     1.8802    17.2446 </r>
       <r>    -4.6349     1.7962    17.4433 </r>
       <r>    -4.5243     2.0045    17.6651 </r>
       <r>    -4.4137     0.6226    17.7339 </r>
       <r>    -4.3031     0.7420    17.8160 </r>
       <r>    -4.1924     3.0483    18.1532 </r>
       <r>    -4.0818     8.7949    19.1261 </r>
       <r>    -3.9712     9.7341    20.2029 </r>
       <r>    -3.8606     6.7001    20.9440 </r>
       <r>    -3.7500     6.7850    21.6946 </r>
       <r>    -3.6393     5.6903    22.3241 </r>
       <r>    -3.5287     5.7044    22.9551 </r>
       <r>    -3.4181     5.0849    23.5176 </r>
       <r>    -3.3075     2.6595    23.8117 </r>
       <r>    -3.1969     1.4433    23.9714 </r>
       <r>    -3.0862     0.2528    23.9994 </r>
       <r>    -2.9756     0.0057    24.0000 </r>
       <r>    -2.8650     0.0000    24.0000 </r>
       <r>    -2.7544     0.0000    24.0000 </r>
       <r>    -2.6438     0.0000    24.0000 </r>
       <r>    -2.5331     0.0000    24.0000 </r>
       <r>    -2.4225     0.0000    24.0000 </r>
       <r>    -2.3119     0.0000    24.0000 </r>
       <r>    -2.2013     0.0015    24.0002 </r>
       <r>    -2.0907     0.1602    24.0179 </r>
       <r>    -1.9801     2.6036    24.3059 </r>
       <r>    -1.8694     7.9342    25.1836 </r>
       <r>    -1.7588     8.1372    26.0837 </r>
       <r>    -1.6482     6.8304    26.8393 </r>
       <r>    -1.5376     5.3548    27.4316 </r>
       <r>    -1.4270     6.3342    28.1323 </r>
       <r>    -1.3163     8.4863    29.0710 </r>
       <r>    -1.2057     5.9750    29.7320 </r>
       <r>    -1.0951     3.9001    30.1634 </r>
       <r>    -0.9845     4.8189    30.6965 </r>
       <r>    -0.8739     8.3852    31.6240 </r>
       <r>    -0.7632     6.9426    32.3920 </r>
       <r>    -0.6526     7.3587    33.2060 </r>
       <r>    -0.5420     6.3556    33.9091 </r>
       <r>    -0.4314     6.2487    34.6003 </r>
       <r>    -0.3208     5.9578    35.2593 </r>
       <r>    -0.2102     8.0097    36.1454 </r>
       <r>    -0.0995     9.8463    37.2345 </r>
       <r>     0.0111     8.1853    38.1400 </r>
       <r>     0.1217     8.9440    39.1294 </r>
       <r>     0.2323     9.5018    40.1804 </r>
       <r>     0.3429    10.7199    41.3663 </r>
       <r>     0.4536     8.7811    42.3376 </r>
       <r>     0.5642     5.7801    42.9770 </r>
       <r>     0.6748     6.2872    43.6725 </r>
       <r>     0.7854     5.2877    44.2574 </r>
       <r>     0.8960     6.6416    44.9921 </r>
       <r>     1.0067     6.7004    45.7333 </r>
       <r>     1.1173     7.8258    46.5990 </r>
       <r>     1.2279     8.3142    47.5187 </r>
       <r>     1.3385     3.7883    47.9378 </r>
       <r>     1.4491     0.5491    47.9985 </r>
       <r>     1.5598     0.0135    48.0000 </r>
       <r>     1.6704     0.0000    48.0000 </r>
       <r>     1.7810     0.0000    48.0000 </r>
       <r>     1.8916     0.0000    48.0000 </r>
       <r>     2.0022     0.0000    48.0000 </r>
       <r>     2.1128     0.0000    48.0000 </r>
       <r>     2.2235     0.0000    48.0000 </r>
       <r>     2.3341     0.0000    48.0000 </r>
       <r>     2.4447     0.0000    48.0000 </r>
       <r>     2.5553     0.0000    48.0000 </r>
       <r>     2.6659     0.0000    48.0000 </r>
       <r>     2.7766     0.0000    48.0000 </r>
       <r>     2.8872     0.0000    48.0000 </r>
       <r>     2.9978     0.0000    48.0000 </r>
       <r>     3.1084     0.0000    48.0000 </r>
       <r>     3.2190     0.0000    48.0000 </r>
       <r>     3.3297     0.0000    48.0000 </r>
       <r>     3.4403     0.0000    48.0000 </r>
       <r>     3.5509     0.0000    48.0000 </r>
       <r>     3.6615     0.0000    48.0000 </r>
       <r>     3.7721     0.0000    48.0000 </r>
       <r>     3.8828     0.0000    48.0000 </r>
       <r>     3.9934     0.0000    48.0000 </r>
       <r>     4.1040     0.0000    48.0000 </r>
       <r>     4.2146     0.0000    48.0000 </r>
       <r>     4.3252     0.0000    48.0000 </r>
       <r>     4.4358     0.0000    48.0000 </r>
       <r>     4.5465     0.0000    48.0000 </r>
       <r>     4.6571     0.0000    48.0000 </r>
       <r>     4.7677     0.0000    48.0000 </r>
       <r>     4.8783     0.0000    48.0000 </r>
       <r>     4.9889     0.0000    48.0000 </r>
       <r>     5.0996     0.0000    48.0000 </r>
       <r>     5.2102     0.0000    48.0000 </r>
       <r>     5.3208     0.0000    48.0000 </r>
       <r>     5.4314     0.0000    48.0000 </r>
       <r>     5.5420     0.0000    48.0000 </r>
       <r>     5.6527     0.0000    48.0000 </r>
       <r>     5.7633     0.0000    48.0000 </r>
       <r>     5.8739     0.0000    48.0000 </r>
       <r>     5.9845     0.0000    48.0000 </r>
       <r>     6.0951     0.0000    48.0000 </r>
       <r>     6.2057     0.0000    48.0000 </r>
       <r>     6.3164     0.0000    48.0000 </r>
       <r>     6.4270     0.0000    48.0000 </r>
       <r>     6.5376     0.0000    48.0000 </r>
       <r>     6.6482     0.0000    48.0000 </r>
       <r>     6.7588     0.0000    48.0000 </r>
       <r>     6.8695     0.0000    48.0000 </r>
       <r>     6.9801     0.0000    48.0000 </r>
       <r>     7.0907     0.0001    48.0000 </r>
       <r>     7.2013     0.0121    48.0014 </r>
       <r>     7.3119     0.1122    48.0138 </r>
       <r>     7.4226     0.1359    48.0288 </r>
       <r>     7.5332     0.0218    48.0312 </r>
       <r>     7.6438     0.0004    48.0313 </r>
       <r>     7.7544     0.0030    48.0316 </r>
       <r>     7.8650     0.0879    48.0413 </r>
       <r>     7.9757     0.3144    48.0761 </r>
       <r>     8.0863     0.1835    48.0964 </r>
       <r>     8.1969     0.4987    48.1515 </r>
       <r>     8.3075     0.9289    48.2543 </r>
       <r>     8.4181     0.2367    48.2805 </r>
       <r>     8.5287     0.0565    48.2867 </r>
       <r>     8.6394     0.8089    48.3762 </r>
       <r>     8.7500     1.8590    48.5819 </r>
       <r>     8.8606     0.6418    48.6529 </r>
       <r>     8.9712     0.0305    48.6562 </r>
       <r>     9.0818     0.0006    48.6563 </r>
       <r>     9.1925     0.0288    48.6595 </r>
       <r>     9.3031     0.2510    48.6872 </r>
       <r>     9.4137     0.5701    48.7503 </r>
       <r>     9.5243     1.0738    48.8691 </r>
       <r>     9.6349     1.4534    49.0299 </r>
       <r>     9.7456     3.0661    49.3690 </r>
       <r>     9.8562     2.9736    49.6980 </r>
       <r>     9.9668     1.7556    49.8922 </r>
       <r>    10.0774     0.5540    49.9535 </r>
       <r>    10.1880     1.0940    50.0745 </r>
       <r>    10.2986     1.3613    50.2251 </r>
       <r>    10.4093     2.0541    50.4523 </r>
       <r>    10.5199     3.1085    50.7961 </r>
       <r>    10.6305     5.0455    51.3543 </r>
       <r>    10.7411     9.0724    52.3579 </r>
       <r>    10.8517     6.1824    53.0417 </r>
       <r>    10.9624     6.5387    53.7651 </r>
       <r>    11.0730     7.3818    54.5816 </r>
       <r>    11.1836     3.0034    54.9139 </r>
       <r>    11.2942     3.6769    55.3206 </r>
       <r>    11.4048     5.6671    55.9475 </r>
       <r>    11.5155     6.3052    56.6450 </r>
       <r>    11.6261     5.3447    57.2362 </r>
       <r>    11.7367     3.3701    57.6090 </r>
       <r>    11.8473     2.1679    57.8488 </r>
       <r>    11.9579     0.7368    57.9303 </r>
       <r>    12.0686     0.4945    57.9850 </r>
       <r>    12.1792     0.1311    57.9995 </r>
       <r>    12.2898     0.0044    58.0000 </r>
       <r>    12.4004     0.0000    58.0000 </r>
       <r>    12.5110     0.0000    58.0000 </r>
       <r>    12.6216     0.0000    58.0000 </r>
       <r>    12.7323     0.0000    58.0000 </r>
       <r>    12.8429     0.0000    58.0000 </r>
       <r>    12.9535     0.0000    58.0000 </r>
       <r>    13.0641     0.0000    58.0000 </r>
       <r>    13.1747     0.0000    58.0000 </r>
       <r>    13.2854     0.0000    58.0000 </r>
       <r>    13.3960     0.0000    58.0000 </r>
       <r>    13.5066     0.0000    58.0000 </r>
      </set>
     </set>
    </array>
   </total>
  </dos>
 </calculation>
 <structure name="finalpos" >
  <crystal>
   <varray name="basis" >
    <v>       4.87342988       0.00000000       0.00000000 </v>
    <v>      -2.43671494       4.22051408       0.00000000 </v>
    <v>       0.00000000       0.00000000       5.37418982 </v>
   </varray>
   <i name="volume">    110.53837516 </i>
   <varray name="rec_basis" >
    <v>       0.20519429       0.11846898      -0.00000000 </v>
    <v>       0.00000000       0.23693796       0.00000000 </v>
    <v>       0.00000000      -0.00000000       0.18607456 </v>
   </varray>
  </crystal>
  <varray name="positions" >
   <v>       0.46457699       0.00000000       0.66666667 </v>
   <v>       0.00000000       0.46457699       0.33333333 </v>
   <v>       0.53542301       0.53542301       0.00000000 </v>
   <v>       0.13537556       0.72380781       0.55428166 </v>
   <v>       0.27619219       0.41156775       0.22094833 </v>
   <v>       0.58843225       0.86462444       0.88761499 </v>
   <v>       0.41156775       0.27619219       0.77905167 </v>
   <v>       0.86462444       0.58843225       0.11238501 </v>
   <v>       0.72380781       0.13537556       0.44571834 </v>
  </varray>
 </structure>
</modeling>
