<?xml version="1.0" encoding="ISO-8859-1"?>
<modeling>
 <generator>
  <i name="program" type="string">vasp </i>
  <i name="version" type="string">6.4.1  </i>
  <i name="subversion" type="string">05Apr23 (build Sep  6 2023 20:49:31) complex                          parallel </i>
  <i name="platform" type="string">LinuxNV </i>
  <i name="date" type="string">2023 10 19 </i>
  <i name="time" type="string">14:05:35 </i>
 </generator>
 <incar>
  <i type="string" name="PREC">Accurate</i>
  <i type="string" name="ALGO">Fast</i>
  <i name="EDIFF">      0.00000001</i>
  <i name="ENCUT">    500.00000000</i>
  <i type="int" name="ISMEAR">     0</i>
  <i name="SIGMA">      0.10000000</i>
  <i type="logical" name="LEPSILON"> T  </i>
 </incar>
 <primitive_cell>
  <structure name="primitive_cell" >
   <crystal>
    <varray name="basis" >
     <v>       4.87342988       0.00000000       0.00000000 </v>
     <v>      -2.43671494       4.22051408       0.00000000 </v>
     <v>       0.00000000       0.00000000       5.37418982 </v>
    </varray>
    <i name="volume">    110.53837516 </i>
    <varray name="rec_basis" >
     <v>       0.20519429       0.11846898      -0.00000000 </v>
     <v>       0.00000000       0.23693796       0.00000000 </v>
     <v>       0.00000000      -0.00000000       0.18607456 </v>
    </varray>
   </crystal>
   <varray name="positions" >
    <v>       0.46468409       0.00000000       0.66666667 </v>
    <v>       0.00004088       0.46470283       0.33324318 </v>
    <v>       0.53533806       0.53529717       0.00009015 </v>
    <v>       0.13565605       0.72418087       0.55431412 </v>
    <v>       0.27601079       0.41151462       0.22085911 </v>
    <v>       0.58847372       0.86469627       0.88739308 </v>
    <v>       0.41147518       0.27581913       0.77901921 </v>
    <v>       0.86449617       0.58848538       0.11247422 </v>
    <v>       0.72377745       0.13530373       0.44594025 </v>
   </varray>
  </structure>
  <varray name="primitive_index" >
   <v type="int" >        1 </v>
   <v type="int" >        2 </v>
   <v type="int" >        3 </v>
   <v type="int" >        4 </v>
   <v type="int" >        5 </v>
   <v type="int" >        6 </v>
   <v type="int" >        7 </v>
   <v type="int" >        8 </v>
   <v type="int" >        9 </v>
  </varray>
 </primitive_cell>
 <kpoints>
  <generation param="Gamma">
   <v type="int" name="divisions">       4        4        4 </v>
   <v name="usershift">      0.00000000       0.00000000       0.00000000 </v>
   <v name="genvec1">      0.25000000       0.00000000       0.00000000 </v>
   <v name="genvec2">      0.00000000       0.25000000       0.00000000 </v>
   <v name="genvec3">      0.00000000       0.00000000       0.25000000 </v>
   <v name="shift">      0.00000000       0.00000000       0.00000000 </v>
  </generation>
  <varray name="kpointlist" >
   <v>       0.00000000       0.00000000       0.00000000 </v>
   <v>       0.25000000       0.00000000       0.00000000 </v>
   <v>       0.00000000       0.25000000       0.00000000 </v>
   <v>       0.50000000       0.00000000       0.00000000 </v>
   <v>       0.00000000       0.50000000       0.00000000 </v>
   <v>       0.25000000       0.25000000       0.00000000 </v>
   <v>       0.50000000       0.25000000       0.00000000 </v>
   <v>       0.00000000       0.00000000       0.25000000 </v>
   <v>       0.25000000       0.00000000       0.25000000 </v>
   <v>       0.00000000       0.25000000       0.25000000 </v>
   <v>      -0.25000000       0.00000000       0.25000000 </v>
   <v>       0.00000000      -0.25000000       0.25000000 </v>
   <v>       0.50000000       0.00000000       0.25000000 </v>
   <v>       0.00000000       0.50000000       0.25000000 </v>
   <v>       0.25000000       0.25000000       0.25000000 </v>
   <v>       0.50000000       0.25000000       0.25000000 </v>
   <v>      -0.25000000      -0.25000000       0.25000000 </v>
   <v>       0.00000000       0.00000000       0.50000000 </v>
   <v>       0.25000000       0.00000000       0.50000000 </v>
   <v>       0.00000000       0.25000000       0.50000000 </v>
   <v>       0.50000000       0.00000000       0.50000000 </v>
   <v>       0.00000000       0.50000000       0.50000000 </v>
   <v>       0.25000000       0.25000000       0.50000000 </v>
   <v>       0.50000000       0.25000000       0.50000000 </v>
  </varray>
  <varray name="weights" >
   <v>       0.01562500 </v>
   <v>       0.06250000 </v>
   <v>       0.03125000 </v>
   <v>       0.03125000 </v>
   <v>       0.01562500 </v>
   <v>       0.06250000 </v>
   <v>       0.03125000 </v>
   <v>       0.03125000 </v>
   <v>       0.06250000 </v>
   <v>       0.03125000 </v>
   <v>       0.06250000 </v>
   <v>       0.03125000 </v>
   <v>       0.06250000 </v>
   <v>       0.03125000 </v>
   <v>       0.06250000 </v>
   <v>       0.06250000 </v>
   <v>       0.06250000 </v>
   <v>       0.01562500 </v>
   <v>       0.06250000 </v>
   <v>       0.03125000 </v>
   <v>       0.03125000 </v>
   <v>       0.01562500 </v>
   <v>       0.06250000 </v>
   <v>       0.03125000 </v>
  </varray>
 </kpoints>
 <parameters>
  <separator name="general" >
   <i type="string" name="SYSTEM">unknown system</i>
   <i type="logical" name="LCOMPAT"> F  </i>
  </separator>
  <separator name="electronic" >
   <i type="string" name="PREC">accura</i>
   <i name="ENMAX">    500.00000000</i>
   <i name="ENAUG">    605.39200000</i>
   <i name="EDIFF">      0.00000001</i>
   <i type="int" name="IALGO">    68</i>
   <i type="int" name="IWAVPR">    10</i>
   <i type="int" name="NBANDS">    29</i>
   <i type="int" name="NBANDSLOW">    -1</i>
   <i type="int" name="NBANDSHIGH">    -1</i>
   <i name="NELECT">     48.00000000</i>
   <i type="int" name="TURBO">     0</i>
   <i type="int" name="IRESTART">     0</i>
   <i type="int" name="NREBOOT">     0</i>
   <i type="int" name="NMIN">     0</i>
   <i name="EREF">      0.00000000</i>
   <separator name="electronic smearing" >
    <i type="int" name="ISMEAR">     0</i>
    <i name="SIGMA">      0.10000000</i>
    <i name="KSPACING">      0.50000000</i>
    <i type="logical" name="KGAMMA"> T  </i>
    <i type="logical" name="KBLOWUP"> T  </i>
   </separator>
   <separator name="electronic projectors" >
    <i type="logical" name="LREAL"> F  </i>
    <v name="ROPT">      0.00000000      0.00000000</v>
    <i type="int" name="LMAXPAW">  -100</i>
    <i type="int" name="LMAXMIX">     2</i>
    <i type="logical" name="NLSPLINE"> F  </i>
   </separator>
   <separator name="electronic startup" >
    <i type="int" name="ISTART">     0</i>
    <i type="int" name="ICHARG">     2</i>
    <i type="int" name="INIWAV">     1</i>
   </separator>
   <separator name="electronic spin" >
    <i type="int" name="ISPIN">     1</i>
    <i type="logical" name="LNONCOLLINEAR"> F  </i>
    <v name="MAGMOM">      1.00000000      1.00000000      1.00000000      1.00000000      1.00000000      1.00000000      1.00000000      1.00000000      1.00000000</v>
    <i name="NUPDOWN">     -1.00000000</i>
    <i type="logical" name="LSORBIT"> F  </i>
    <v name="SAXIS">      0.00000000      0.00000000      1.00000000</v>
    <i type="logical" name="LSPIRAL"> F  </i>
    <v name="QSPIRAL">      0.00000000      0.00000000      0.00000000</v>
    <i type="logical" name="LZEROZ"> F  </i>
   </separator>
   <separator name="electronic exchange-correlation" >
    <i type="logical" name="LASPH"> F  </i>
    <i type="logical" name="LMETAGGA"> F  </i>
   </separator>
   <separator name="electronic convergence" >
    <i type="int" name="NELM">    60</i>
    <i type="int" name="NELMDL">    -5</i>
    <i type="int" name="NELMIN">     2</i>
    <i name="ENINI">    500.00000000</i>
    <separator name="electronic convergence detail" >
     <i type="logical" name="LDIAG"> T  </i>
     <i type="logical" name="LSUBROT"> F  </i>
     <i name="WEIMIN">      0.00000000</i>
     <i name="EBREAK">      0.00000000</i>
     <i name="DEPER">      0.30000000</i>
     <i type="int" name="NRMM">     4</i>
     <i name="TIME">      0.40000000</i>
    </separator>
   </separator>
   <separator name="electronic mixer" >
    <i name="AMIX">      0.40000000</i>
    <i name="BMIX">      1.00000000</i>
    <i name="AMIN">      0.10000000</i>
    <i name="AMIX_MAG">      1.60000000</i>
    <i name="BMIX_MAG">      1.00000000</i>
    <separator name="electronic mixer details" >
     <i type="int" name="IMIX">     4</i>
     <i type="logical" name="MIXFIRST"> F  </i>
     <i type="int" name="MAXMIX">   -45</i>
     <i name="WC">    100.00000000</i>
     <i type="int" name="INIMIX">     1</i>
     <i type="int" name="MIXPRE">     1</i>
     <i type="int" name="MREMOVE">     5</i>
    </separator>
   </separator>
   <separator name="electronic dipolcorrection" >
    <i type="logical" name="LDIPOL"> F  </i>
    <i type="logical" name="LMONO"> F  </i>
    <i type="int" name="IDIPOL">     0</i>
    <i name="EPSILON">      1.00000000</i>
    <v name="DIPOL">   -100.00000000   -100.00000000   -100.00000000</v>
    <i name="EFIELD">      0.00000000</i>
   </separator>
  </separator>
  <separator name="grids" >
   <i type="int" name="NGX">    36</i>
   <i type="int" name="NGY">    36</i>
   <i type="int" name="NGZ">    40</i>
   <i type="int" name="NGXF">    72</i>
   <i type="int" name="NGYF">    72</i>
   <i type="int" name="NGZF">    80</i>
   <i type="logical" name="ADDGRID"> F  </i>
  </separator>
  <separator name="ionic" >
   <i type="int" name="NSW">     0</i>
   <i type="int" name="IBRION">    -1</i>
   <i type="int" name="MDALGO">     0</i>
   <i type="int" name="ISIF">     2</i>
   <i name="PSTRESS">      0.00000000</i>
   <i name="EDIFFG">      0.00000010</i>
   <i type="int" name="NFREE">     0</i>
   <i name="POTIM">      0.50000000</i>
   <i name="SMASS">     -3.00000000</i>
   <i name="SCALEE">      1.00000000</i>
  </separator>
  <separator name="ionic md" >
   <i name="TEBEG">      0.00010000</i>
   <i name="TEEND">      0.00010000</i>
   <i type="int" name="NBLOCK">     1</i>
   <i type="int" name="KBLOCK">     1</i>
   <i type="int" name="NPACO">   256</i>
   <i name="APACO">     10.00000000</i>
  </separator>
  <separator name="symmetry" >
   <i type="int" name="ISYM">     2</i>
   <i name="SYMPREC">      0.00001000</i>
  </separator>
  <separator name="dos" >
   <i type="int" name="LORBIT">     0</i>
   <v name="RWIGS">     -1.00000000     -1.00000000</v>
   <i type="int" name="NEDOS">   301</i>
   <i name="EMIN">     10.00000000</i>
   <i name="EMAX">    -10.00000000</i>
   <i name="EFERMI">      0.00000000</i>
  </separator>
  <separator name="writing" >
   <i type="int" name="NWRITE">     2</i>
   <i type="logical" name="LWAVE"> T  </i>
   <i type="logical" name="LDOWNSAMPLE"> F  </i>
   <i type="logical" name="LCHARG"> T  </i>
   <i type="logical" name="LPARD"> F  </i>
   <i type="logical" name="LVTOT"> F  </i>
   <i type="logical" name="LVHAR"> F  </i>
   <i type="logical" name="LELF"> F  </i>
   <i type="logical" name="LOPTICS"> F  </i>
   <v name="STM">      0.00000000      0.00000000      0.00000000      0.00000000      0.00000000      0.00000000      0.00000000</v>
  </separator>
  <separator name="performance" >
   <i type="int" name="NPAR">     1</i>
   <i type="int" name="NSIM">     4</i>
   <i type="int" name="NBLK">    -1</i>
   <i type="logical" name="LPLANE"> T  </i>
   <i type="logical" name="LSCALAPACK"> T  </i>
   <i type="logical" name="LSCAAWARE"> F  </i>
   <i type="logical" name="LSCALU"> F  </i>
   <i type="logical" name="LASYNC"> F  </i>
   <i type="logical" name="LORBITALREAL"> F  </i>
  </separator>
  <separator name="miscellaneous" >
   <i type="int" name="IDIOT">     3</i>
   <i type="int" name="PHON_NSTRUCT">    -1</i>
   <i type="logical" name="LMUSIC"> F  </i>
   <v name="POMASS">     28.08500000     16.00000000</v>
   <v name="DARWINR">      0.00000000      0.00000000</v>
   <v name="DARWINV">      1.00000000      1.00000000</v>
   <i type="logical" name="LCORR"> T  </i>
  </separator>
  <i type="logical" name="GGA_COMPAT"> T  </i>
  <i type="logical" name="LBERRY"> F  </i>
  <i type="int" name="ICORELEVEL">     0</i>
  <i type="logical" name="LDAU"> F  </i>
  <i type="int" name="I_CONSTRAINED_M">     0</i>
  <separator name="electronic exchange-correlation" >
   <i type="string" name="GGA">--</i>
   <i type="int" name="VOSKOWN">     0</i>
   <i type="logical" name="LHFCALC"> F  </i>
   <i type="string" name="PRECFOCK"></i>
   <i type="logical" name="LSYMGRAD"> F  </i>
   <i type="logical" name="LHFONE"> F  </i>
   <i type="logical" name="LRHFCALC"> F  </i>
   <i type="logical" name="LTHOMAS"> F  </i>
   <i type="logical" name="LMODELHF"> F  </i>
   <i type="logical" name="LFOCKACE"> F  </i>
   <i name="ENCUT4O">     -1.00000000</i>
   <i type="int" name="EXXOEP">     0</i>
   <i type="int" name="FOURORBIT">     0</i>
   <i name="AEXX">      0.00000000</i>
   <i name="HFALPHA">      0.00000000</i>
   <i name="MCALPHA">      0.00000000</i>
   <i name="ALDAX">      1.00000000</i>
   <i name="AGGAX">      1.00000000</i>
   <i name="ALDAC">      1.00000000</i>
   <i name="AGGAC">      1.00000000</i>
   <i type="int" name="NKREDX">     1</i>
   <i type="int" name="NKREDY">     1</i>
   <i type="int" name="NKREDZ">     1</i>
   <i type="logical" name="SHIFTRED"> F  </i>
   <i type="logical" name="ODDONLY"> F  </i>
   <i type="logical" name="EVENONLY"> F  </i>
   <i type="int" name="LMAXFOCK">     0</i>
   <i type="int" name="NMAXFOCKAE">     0</i>
   <i type="logical" name="LFOCKAEDFT"> F  </i>
   <i name="HFSCREEN">      0.00000000</i>
   <i name="HFSCREENC">      0.00000000</i>
   <i type="int" name="NBANDSGWLOW">     0</i>
  </separator>
  <separator name="vdW DFT" >
   <i type="logical" name="LUSE_VDW"> F  </i>
   <i type="int" name="IVDW_NL">     1</i>
   <i type="logical" name="LSPIN_VDW"> F  </i>
   <i name="Zab_VDW">     -0.84910000</i>
   <i name="PARAM1">      0.12340000</i>
   <i name="PARAM2">      1.00000000</i>
   <i name="PARAM3">      0.00000000</i>
  </separator>
  <separator name="model GW" >
   <i type="int" name="MODEL_GW">     0</i>
   <i name="MODEL_EPS0">      7.36922501</i>
   <i name="MODEL_ALPHA">      1.00000000</i>
  </separator>
  <separator name="linear response parameters" >
   <i type="logical" name="LEPSILON"> T  </i>
   <i type="logical" name="LRPA"> F  </i>
   <i type="logical" name="LNABLA"> F  </i>
   <i type="logical" name="LVEL"> F  </i>
   <i name="CSHIFT">      0.10000000</i>
   <i name="OMEGAMAX">     -1.00000000</i>
   <i name="DEG_THRESHOLD">      0.00200000</i>
   <i name="RTIME">     -0.10000000</i>
   <i name="WPLASMAI">      0.00000000</i>
   <v name="DFIELD">      0.00000000      0.00000000      0.00000000</v>
   <v name="WPLASMA">      0.00000000      0.00000000      0.00000000      0.00000000      0.00000000      0.00000000      0.00000000      0.00000000      0.00000000</v>
  </separator>
  <separator name="orbital magnetization" >
   <i type="logical" name="NUCIND"> F  </i>
   <v name="MAGPOS">      0.00000000      0.00000000      0.00000000</v>
   <i type="logical" name="LNICSALL"> T  </i>
   <i type="logical" name="ORBITALMAG"> F  </i>
   <i type="logical" name="LMAGBLOCH"> F  </i>
   <i type="logical" name="LCHIMAG"> F  </i>
   <i type="logical" name="LGAUGE"> T  </i>
   <i type="int" name="MAGATOM">     0</i>
   <v name="MAGDIPOL">      0.00000000      0.00000000      0.00000000</v>
   <v name="AVECCONST">      0.00000000      0.00000000      0.00000000</v>
  </separator>
  <separator name="response functions" >
   <i type="logical" name="LALL_IN_ONE"> F  </i>
   <i type="int" name="IALL_IN_ONE">    -1</i>
   <i type="int" name="NBANDS_WAVE">    -1</i>
   <i type="logical" name="LFINITE_TEMPERATURE"> F  </i>
   <i type="logical" name="LADDER"> F  </i>
   <i type="logical" name="LRPAFORCE"> F  </i>
   <i type="logical" name="LFXC"> F  </i>
   <i type="logical" name="LHARTREE"> T  </i>
   <i type="int" name="IBSE">     0</i>
   <v type="int" name="KPOINT">    -1     0     0     0</v>
   <i type="logical" name="LTCTC"> F  </i>
   <i type="logical" name="LTCTE"> F  </i>
   <i type="logical" name="LTETE"> F  </i>
   <i type="logical" name="LTRIPLET"> F  </i>
   <i type="logical" name="LFXCEPS"> F  </i>
   <i type="logical" name="LFXHEG"> F  </i>
   <i type="int" name="NATURALO">     2</i>
   <i type="logical" name="LHOLEGF"> F  </i>
   <i type="logical" name="L2ORDER"> F  </i>
   <i type="logical" name="LDMP1"> F  </i>
   <i type="logical" name="LMP2LT"> F  </i>
   <i type="logical" name="LSMP2LT"> F  </i>
   <i type="logical" name="LGWLF"> F  </i>
   <i name="ENCUTGW">     -1.60000002</i>
   <i name="ENCUTGWSOFT">     -1.60000002</i>
   <i name="ENCUTLF">     -1.00000000</i>
   <i type="logical" name="LESF_SPLINES"> F  </i>
   <i type="int" name="LMAXMP2">    -1</i>
   <i name="SCISSOR">      0.00000000</i>
   <i type="int" name="NOMEGA">     0</i>
   <i type="int" name="NOMEGAR">     0</i>
   <i type="int" name="NBANDSGW">    -1</i>
   <i type="int" name="NBANDSO">    -1</i>
   <i type="int" name="NBANDSV">    -1</i>
   <i type="int" name="NELMGW">     1</i>
   <i type="int" name="NELMHF">     1</i>
   <i type="int" name="DIM">     3</i>
   <i type="int" name="IESPILON">     4</i>
   <i type="int" name="ANTIRES">     0</i>
   <i name="OMEGAMAX">    -30.00000000</i>
   <i name="OMEGAMIN">    -30.00000000</i>
   <i name="OMEGATL">   -200.00000000</i>
   <i type="int" name="OMEGAGRID">     0</i>
   <i name="CSHIFT">     -0.10000000</i>
   <i type="logical" name="LSELFENERGY"> F  </i>
   <i type="logical" name="LSPECTRAL"> F  </i>
   <i type="logical" name="LSPECTRALGW"> F  </i>
   <i type="logical" name="LSINGLES"> F  </i>
   <i type="logical" name="LFERMIGW"> F  </i>
   <i type="logical" name="ODDONLYGW"> F  </i>
   <i type="logical" name="EVENONLYGW"> F  </i>
   <i type="int" name="NKREDLFX">     1</i>
   <i type="int" name="NKREDLFY">     1</i>
   <i type="int" name="NKREDLFZ">     1</i>
   <i type="int" name="MAXMEM">  2800</i>
   <i type="int" name="TELESCOPE">     0</i>
   <i type="int" name="NTAUPAR">    -1</i>
   <i type="int" name="NOMEGAPAR">    -1</i>
   <i name="DAMP_NEWTON">      0.80000001</i>
   <i name="LAMBDA">      1.00000000</i>
  </separator>
  <separator name="External order field" >
   <i name="OFIELD_KAPPA">      0.00000000</i>
   <v name="OFIELD_K">      0.00000000      0.00000000      0.00000000</v>
   <i name="OFIELD_Q6_NEAR">      0.00000000</i>
   <i name="OFIELD_Q6_FAR">      0.00000000</i>
   <i name="OFIELD_A">      0.00000000</i>
  </separator>
  <separator name="optional k-points parameters" >
   <i type="int" name="KPOINTS_OPT_MODE">     1</i>
   <i type="logical" name="LKPOINTS_OPT"> F  </i>
  </separator>
 </parameters>
 <atominfo>
  <atoms>       9 </atoms>
  <types>       2 </types>
  <array name="atoms" >
   <dimension dim="1">ion</dimension>
   <field type="string">element</field>
   <field type="int">atomtype</field>
   <set>
    <rc><c>Si</c><c>   1</c></rc>
    <rc><c>Si</c><c>   1</c></rc>
    <rc><c>Si</c><c>   1</c></rc>
    <rc><c>O </c><c>   2</c></rc>
    <rc><c>O </c><c>   2</c></rc>
    <rc><c>O </c><c>   2</c></rc>
    <rc><c>O </c><c>   2</c></rc>
    <rc><c>O </c><c>   2</c></rc>
    <rc><c>O </c><c>   2</c></rc>
   </set>
  </array>
  <array name="atomtypes" >
   <dimension dim="1">type</dimension>
   <field type="int">atomspertype</field>
   <field type="string">element</field>
   <field>mass</field>
   <field>valence</field>
   <field type="string">pseudopotential</field>
   <set>
    <rc><c>   3</c><c>Si</c><c>     28.08500000</c><c>      4.00000000</c><c>  PAW_PBE Si 05Jan2001                  </c></rc>
    <rc><c>   6</c><c>O </c><c>     16.00000000</c><c>      6.00000000</c><c>  PAW_PBE O 08Apr2002                   </c></rc>
   </set>
  </array>
 </atominfo>
 <structure name="initialpos" >
  <crystal>
   <varray name="basis" >
    <v>       4.87342988       0.00000000       0.00000000 </v>
    <v>      -2.43671494       4.22051408       0.00000000 </v>
    <v>       0.00000000       0.00000000       5.37418982 </v>
   </varray>
   <i name="volume">    110.53837516 </i>
   <varray name="rec_basis" >
    <v>       0.20519429       0.11846898      -0.00000000 </v>
    <v>       0.00000000       0.23693796       0.00000000 </v>
    <v>       0.00000000      -0.00000000       0.18607456 </v>
   </varray>
  </crystal>
  <varray name="positions" >
   <v>       0.46468409       0.00000000       0.66666667 </v>
   <v>       0.00004088       0.46470283       0.33324318 </v>
   <v>       0.53533806       0.53529717       0.00009015 </v>
   <v>       0.13565605       0.72418087       0.55431412 </v>
   <v>       0.27601079       0.41151462       0.22085911 </v>
   <v>       0.58847372       0.86469627       0.88739308 </v>
   <v>       0.41147518       0.27581913       0.77901921 </v>
   <v>       0.86449617       0.58848538       0.11247422 </v>
   <v>       0.72377745       0.13530373       0.44594025 </v>
  </varray>
 </structure>
 <calculation>
  <scstep>
   <time name="dav">    0.79    0.79</time>
   <time name="total">    0.82    0.80</time>
   <energy>
    <i name="alphaZ">     71.30271804 </i>
    <i name="ewald">  -1930.19230385 </i>
    <i name="hartreedc">   -909.39806900 </i>
    <i name="XCdc">    141.70970698 </i>
    <i name="pawpsdc">   2343.66826019 </i>
    <i name="pawaedc">  -2301.68043871 </i>
    <i name="eentropy">     -0.00755549 </i>
    <i name="bandstr">    -17.83366939 </i>
    <i name="atom">   2903.33737771 </i>
    <i name="e_fr_energy">    300.90602647 </i>
    <i name="e_wo_entrp">    300.91358196 </i>
    <i name="e_0_energy">    300.90980422 </i>
   </energy>
  </scstep>
  <scstep>
   <time name="dav">    0.82    0.82</time>
   <time name="total">    0.82    0.82</time>
   <energy>
    <i name="e_fr_energy">    -60.96228681 </i>
    <i name="e_wo_entrp">    -60.96228681 </i>
    <i name="e_0_energy">    -60.96228681 </i>
   </energy>
  </scstep>
  <scstep>
   <time name="dav">    0.77    0.77</time>
   <time name="total">    0.77    0.77</time>
   <energy>
    <i name="e_fr_energy">    -80.16472523 </i>
    <i name="e_wo_entrp">    -80.16472523 </i>
    <i name="e_0_energy">    -80.16472523 </i>
   </energy>
  </scstep>
  <scstep>
   <time name="dav">    0.77    0.78</time>
   <time name="total">    0.78    0.78</time>
   <energy>
    <i name="e_fr_energy">    -80.41814463 </i>
    <i name="e_wo_entrp">    -80.41814463 </i>
    <i name="e_0_energy">    -80.41814463 </i>
   </energy>
  </scstep>
  <scstep>
   <time name="dav">    0.75    0.76</time>
   <time name="total">    0.90    0.86</time>
   <energy>
    <i name="e_fr_energy">    -80.42318768 </i>
    <i name="e_wo_entrp">    -80.42318768 </i>
    <i name="e_0_energy">    -80.42318768 </i>
   </energy>
  </scstep>
  <scstep>
   <time name="diag">    0.08    0.08</time>
   <time name="diis">    0.86    0.86</time>
   <time name="orth">    0.01    0.01</time>
   <time name="total">    1.10    1.06</time>
   <energy>
    <i name="e_fr_energy">    -70.67398502 </i>
    <i name="e_wo_entrp">    -70.67398502 </i>
    <i name="e_0_energy">    -70.67398502 </i>
   </energy>
  </scstep>
  <scstep>
   <time name="diag">    0.08    0.08</time>
   <time name="diis">    0.95    0.95</time>
   <time name="orth">    0.01    0.01</time>
   <time name="total">    1.19    1.14</time>
   <energy>
    <i name="e_fr_energy">    -70.97616297 </i>
    <i name="e_wo_entrp">    -70.97616297 </i>
    <i name="e_0_energy">    -70.97616297 </i>
   </energy>
  </scstep>
  <scstep>
   <time name="diag">    0.08    0.08</time>
   <time name="diis">    0.95    0.95</time>
   <time name="orth">    0.01    0.01</time>
   <time name="total">    1.19    1.15</time>
   <energy>
    <i name="e_fr_energy">    -70.96811134 </i>
    <i name="e_wo_entrp">    -70.96811134 </i>
    <i name="e_0_energy">    -70.96811134 </i>
   </energy>
  </scstep>
  <scstep>
   <time name="diag">    0.08    0.08</time>
   <time name="diis">    0.97    0.97</time>
   <time name="orth">    0.01    0.01</time>
   <time name="total">    1.21    1.16</time>
   <energy>
    <i name="e_fr_energy">    -70.98721045 </i>
    <i name="e_wo_entrp">    -70.98721045 </i>
    <i name="e_0_energy">    -70.98721045 </i>
   </energy>
  </scstep>
  <scstep>
   <time name="diag">    0.08    0.08</time>
   <time name="diis">    0.97    0.97</time>
   <time name="orth">    0.01    0.01</time>
   <time name="total">    1.21    1.17</time>
   <energy>
    <i name="e_fr_energy">    -70.99253070 </i>
    <i name="e_wo_entrp">    -70.99253070 </i>
    <i name="e_0_energy">    -70.99253070 </i>
   </energy>
  </scstep>
  <scstep>
   <time name="diag">    0.08    0.08</time>
   <time name="diis">    0.96    0.97</time>
   <time name="orth">    0.01    0.01</time>
   <time name="total">    1.21    1.16</time>
   <energy>
    <i name="e_fr_energy">    -70.98865482 </i>
    <i name="e_wo_entrp">    -70.98865482 </i>
    <i name="e_0_energy">    -70.98865482 </i>
   </energy>
  </scstep>
  <scstep>
   <time name="diag">    0.08    0.08</time>
   <time name="diis">    0.97    0.97</time>
   <time name="orth">    0.01    0.01</time>
   <time name="total">    1.21    1.17</time>
   <energy>
    <i name="e_fr_energy">    -70.98926605 </i>
    <i name="e_wo_entrp">    -70.98926605 </i>
    <i name="e_0_energy">    -70.98926605 </i>
   </energy>
  </scstep>
  <scstep>
   <time name="diag">    0.08    0.08</time>
   <time name="diis">    1.02    1.03</time>
   <time name="orth">    0.01    0.01</time>
   <time name="total">    1.27    1.22</time>
   <energy>
    <i name="e_fr_energy">    -70.98903171 </i>
    <i name="e_wo_entrp">    -70.98903171 </i>
    <i name="e_0_energy">    -70.98903171 </i>
   </energy>
  </scstep>
  <scstep>
   <time name="diag">    0.08    0.08</time>
   <time name="diis">    0.97    0.98</time>
   <time name="orth">    0.01    0.01</time>
   <time name="total">    1.22    1.17</time>
   <energy>
    <i name="e_fr_energy">    -70.98898403 </i>
    <i name="e_wo_entrp">    -70.98898403 </i>
    <i name="e_0_energy">    -70.98898403 </i>
   </energy>
  </scstep>
  <scstep>
   <time name="diag">    0.08    0.08</time>
   <time name="diis">    1.06    1.07</time>
   <time name="orth">    0.01    0.01</time>
   <time name="total">    1.31    1.26</time>
   <energy>
    <i name="e_fr_energy">    -70.98898096 </i>
    <i name="e_wo_entrp">    -70.98898096 </i>
    <i name="e_0_energy">    -70.98898096 </i>
   </energy>
  </scstep>
  <scstep>
   <time name="diag">    0.08    0.08</time>
   <time name="diis">    0.98    0.98</time>
   <time name="orth">    0.01    0.01</time>
   <time name="total">    1.23    1.18</time>
   <energy>
    <i name="e_fr_energy">    -70.98898001 </i>
    <i name="e_wo_entrp">    -70.98898001 </i>
    <i name="e_0_energy">    -70.98898001 </i>
   </energy>
  </scstep>
  <scstep>
   <time name="diag">    0.08    0.08</time>
   <time name="diis">    0.99    0.99</time>
   <time name="orth">    0.01    0.01</time>
   <time name="total">    1.24    1.19</time>
   <energy>
    <i name="e_fr_energy">    -70.98898033 </i>
    <i name="e_wo_entrp">    -70.98898033 </i>
    <i name="e_0_energy">    -70.98898033 </i>
   </energy>
  </scstep>
  <scstep>
   <time name="diag">    0.08    0.08</time>
   <time name="diis">    0.98    0.99</time>
   <time name="orth">    0.01    0.01</time>
   <time name="total">    1.24    1.19</time>
   <energy>
    <i name="e_fr_energy">    -70.98898060 </i>
    <i name="e_wo_entrp">    -70.98898060 </i>
    <i name="e_0_energy">    -70.98898060 </i>
   </energy>
  </scstep>
  <scstep>
   <time name="diag">    0.08    0.08</time>
   <time name="diis">    0.97    0.97</time>
   <time name="orth">    0.01    0.01</time>
   <time name="total">    1.22    1.17</time>
   <energy>
    <i name="e_fr_energy">    -70.98898050 </i>
    <i name="e_wo_entrp">    -70.98898050 </i>
    <i name="e_0_energy">    -70.98898050 </i>
   </energy>
  </scstep>
  <scstep>
   <time name="diag">    0.08    0.08</time>
   <time name="diis">    0.97    0.98</time>
   <time name="orth">    0.01    0.01</time>
   <time name="total">    1.22    1.17</time>
   <energy>
    <i name="e_fr_energy">    -70.98898053 </i>
    <i name="e_wo_entrp">    -70.98898053 </i>
    <i name="e_0_energy">    -70.98898053 </i>
   </energy>
  </scstep>
  <scstep>
   <time name="diag">    0.08    0.08</time>
   <time name="diis">    0.68    0.68</time>
   <time name="orth">    0.01    0.01</time>
   <time name="total">    0.92    0.87</time>
   <energy>
    <i name="e_fr_energy">    -70.98898051 </i>
    <i name="e_wo_entrp">    -70.98898051 </i>
    <i name="e_0_energy">    -70.98898051 </i>
   </energy>
  </scstep>
  <scstep>
   <time name="diag">    0.08    0.08</time>
   <time name="diis">    0.66    0.66</time>
   <time name="orth">    0.01    0.01</time>
   <time name="total">    0.77    0.75</time>
   <energy>
    <i name="alphaZ">     71.30271804 </i>
    <i name="ewald">  -1930.19230385 </i>
    <i name="hartreedc">  -1040.55887299 </i>
    <i name="XCdc">    150.68551442 </i>
    <i name="pawpsdc">   8045.59185755 </i>
    <i name="pawaedc">  -8005.96967226 </i>
    <i name="eentropy">     -0.00000000 </i>
    <i name="bandstr">   -265.18559914 </i>
    <i name="atom">   2903.33737771 </i>
    <i name="e_fr_energy">    -70.98898051 </i>
    <i name="e_wo_entrp">    -70.98898051 </i>
    <i name="e_0_energy">    -70.98898051 </i>
   </energy>
  </scstep>
  <structure>
   <crystal>
    <varray name="basis" >
     <v>       4.87342988       0.00000000       0.00000000 </v>
     <v>      -2.43671494       4.22051408       0.00000000 </v>
     <v>       0.00000000       0.00000000       5.37418982 </v>
    </varray>
    <i name="volume">    110.53837516 </i>
    <varray name="rec_basis" >
     <v>       0.20519429       0.11846898      -0.00000000 </v>
     <v>       0.00000000       0.23693796       0.00000000 </v>
     <v>       0.00000000      -0.00000000       0.18607456 </v>
    </varray>
   </crystal>
   <varray name="positions" >
    <v>       0.46468409       0.00000000       0.66666667 </v>
    <v>       0.00004088       0.46470283       0.33324318 </v>
    <v>       0.53533806       0.53529717       0.00009015 </v>
    <v>       0.13565605       0.72418087       0.55431412 </v>
    <v>       0.27601079       0.41151462       0.22085911 </v>
    <v>       0.58847372       0.86469627       0.88739308 </v>
    <v>       0.41147518       0.27581913       0.77901921 </v>
    <v>       0.86449617       0.58848538       0.11247422 </v>
    <v>       0.72377745       0.13530373       0.44594025 </v>
   </varray>
  </structure>
  <varray name="forces" >
   <v>       0.01738267      -0.00000000       0.00000000 </v>
   <v>      -0.03018224       0.00397346       0.06794551 </v>
   <v>      -0.03018224      -0.00397346      -0.06794551 </v>
   <v>      -0.30228495      -0.06809342       0.09953087 </v>
   <v>       0.14299719      -0.24088716       0.15161419 </v>
   <v>       0.18077866       0.17677661       0.20913429 </v>
   <v>      -0.30228495       0.06809342      -0.09953087 </v>
   <v>       0.14299719       0.24088716      -0.15161419 </v>
   <v>       0.18077866      -0.17677661      -0.20913429 </v>
  </varray>
  <varray name="stress" >
   <v>      73.50292604       0.00000000       0.00000000 </v>
   <v>       0.00000000      70.43627873      -0.35344304 </v>
   <v>       0.00000000      -0.35344252      73.61840273 </v>
  </varray>
  <energy>
   <i name="e_fr_energy">    -70.98898051 </i>
   <i name="e_wo_entrp">    -70.98898051 </i>
   <i name="e_0_energy">    -70.98898051 </i>
  </energy>
  <scstep>
   <time name="total">   12.15    2.57</time>
   <energy>
    <i name="e_fr_energy">   -182.53441954 </i>
    <i name="e_wo_entrp">   -182.53441954 </i>
    <i name="e_0_energy">   -182.53441954 </i>
   </energy>
  </scstep>
  <scstep>
   <time name="total">   11.93    2.27</time>
   <energy>
    <i name="e_fr_energy">   -172.60824677 </i>
    <i name="e_wo_entrp">   -172.60824677 </i>
    <i name="e_0_energy">   -172.60824677 </i>
   </energy>
  </scstep>
  <scstep>
   <time name="total">   12.01    2.30</time>
   <energy>
    <i name="e_fr_energy">   -172.75599672 </i>
    <i name="e_wo_entrp">   -172.75599672 </i>
    <i name="e_0_energy">   -172.75599672 </i>
   </energy>
  </scstep>
  <scstep>
   <time name="total">    0.92    0.92</time>
   <energy>
    <i name="e_fr_energy">   -172.76351326 </i>
    <i name="e_wo_entrp">   -172.76351326 </i>
    <i name="e_0_energy">   -172.76351326 </i>
   </energy>
  </scstep>
  <scstep>
   <time name="total">    0.92    0.92</time>
   <energy>
    <i name="e_fr_energy">   -172.76370552 </i>
    <i name="e_wo_entrp">   -172.76370552 </i>
    <i name="e_0_energy">   -172.76370552 </i>
   </energy>
  </scstep>
  <scstep>
   <time name="total">    0.92    0.92</time>
   <energy>
    <i name="e_fr_energy">   -172.76372480 </i>
    <i name="e_wo_entrp">   -172.76372480 </i>
    <i name="e_0_energy">   -172.76372480 </i>
   </energy>
  </scstep>
  <scstep>
   <time name="total">    0.92    0.92</time>
   <energy>
    <i name="e_fr_energy">   -172.76372001 </i>
    <i name="e_wo_entrp">   -172.76372001 </i>
    <i name="e_0_energy">   -172.76372001 </i>
   </energy>
  </scstep>
  <scstep>
   <time name="total">    0.92    0.92</time>
   <energy>
    <i name="e_fr_energy">   -172.76371893 </i>
    <i name="e_wo_entrp">   -172.76371893 </i>
    <i name="e_0_energy">   -172.76371893 </i>
   </energy>
  </scstep>
  <scstep>
   <time name="total">    0.91    0.91</time>
   <energy>
    <i name="e_fr_energy">   -172.76371871 </i>
    <i name="e_wo_entrp">   -172.76371871 </i>
    <i name="e_0_energy">   -172.76371871 </i>
   </energy>
  </scstep>
  <scstep>
   <time name="total">    0.91    0.92</time>
   <energy>
    <i name="e_fr_energy">   -172.76371881 </i>
    <i name="e_wo_entrp">   -172.76371881 </i>
    <i name="e_0_energy">   -172.76371881 </i>
   </energy>
  </scstep>
  <scstep>
   <time name="total">   12.34    2.63</time>
   <energy>
    <i name="e_fr_energy">   -182.37066403 </i>
    <i name="e_wo_entrp">   -182.37066403 </i>
    <i name="e_0_energy">   -182.37066403 </i>
   </energy>
  </scstep>
  <scstep>
   <time name="total">   11.89    2.27</time>
   <energy>
    <i name="e_fr_energy">   -172.60861665 </i>
    <i name="e_wo_entrp">   -172.60861665 </i>
    <i name="e_0_energy">   -172.60861665 </i>
   </energy>
  </scstep>
  <scstep>
   <time name="total">   11.98    2.29</time>
   <energy>
    <i name="e_fr_energy">   -172.75400646 </i>
    <i name="e_wo_entrp">   -172.75400646 </i>
    <i name="e_0_energy">   -172.75400646 </i>
   </energy>
  </scstep>
  <scstep>
   <time name="total">    0.92    0.93</time>
   <energy>
    <i name="e_fr_energy">   -172.76127406 </i>
    <i name="e_wo_entrp">   -172.76127406 </i>
    <i name="e_0_energy">   -172.76127406 </i>
   </energy>
  </scstep>
  <scstep>
   <time name="total">    0.93    0.93</time>
   <energy>
    <i name="e_fr_energy">   -172.76143990 </i>
    <i name="e_wo_entrp">   -172.76143990 </i>
    <i name="e_0_energy">   -172.76143990 </i>
   </energy>
  </scstep>
  <scstep>
   <time name="total">    0.93    0.93</time>
   <energy>
    <i name="e_fr_energy">   -172.76145242 </i>
    <i name="e_wo_entrp">   -172.76145242 </i>
    <i name="e_0_energy">   -172.76145242 </i>
   </energy>
  </scstep>
  <scstep>
   <time name="total">    0.92    0.93</time>
   <energy>
    <i name="e_fr_energy">   -172.76145902 </i>
    <i name="e_wo_entrp">   -172.76145902 </i>
    <i name="e_0_energy">   -172.76145902 </i>
   </energy>
  </scstep>
  <scstep>
   <time name="total">    0.92    0.92</time>
   <energy>
    <i name="e_fr_energy">   -172.76146434 </i>
    <i name="e_wo_entrp">   -172.76146434 </i>
    <i name="e_0_energy">   -172.76146434 </i>
   </energy>
  </scstep>
  <scstep>
   <time name="total">    0.91    0.92</time>
   <energy>
    <i name="e_fr_energy">   -172.76146617 </i>
    <i name="e_wo_entrp">   -172.76146617 </i>
    <i name="e_0_energy">   -172.76146617 </i>
   </energy>
  </scstep>
  <scstep>
   <time name="total">    0.91    0.92</time>
   <energy>
    <i name="e_fr_energy">   -172.76146567 </i>
    <i name="e_wo_entrp">   -172.76146567 </i>
    <i name="e_0_energy">   -172.76146567 </i>
   </energy>
  </scstep>
  <scstep>
   <time name="total">   12.14    2.58</time>
   <energy>
    <i name="e_fr_energy">   -182.16589754 </i>
    <i name="e_wo_entrp">   -182.16589754 </i>
    <i name="e_0_energy">   -182.16589754 </i>
   </energy>
  </scstep>
  <scstep>
   <time name="total">   11.79    2.24</time>
   <energy>
    <i name="e_fr_energy">   -172.56518952 </i>
    <i name="e_wo_entrp">   -172.56518952 </i>
    <i name="e_0_energy">   -172.56518952 </i>
   </energy>
  </scstep>
  <scstep>
   <time name="total">   11.84    2.27</time>
   <energy>
    <i name="e_fr_energy">   -172.71718093 </i>
    <i name="e_wo_entrp">   -172.71718093 </i>
    <i name="e_0_energy">   -172.71718093 </i>
   </energy>
  </scstep>
  <scstep>
   <time name="total">    0.92    0.92</time>
   <energy>
    <i name="e_fr_energy">   -172.72466179 </i>
    <i name="e_wo_entrp">   -172.72466179 </i>
    <i name="e_0_energy">   -172.72466179 </i>
   </energy>
  </scstep>
  <scstep>
   <time name="total">    0.93    0.93</time>
   <energy>
    <i name="e_fr_energy">   -172.72481710 </i>
    <i name="e_wo_entrp">   -172.72481710 </i>
    <i name="e_0_energy">   -172.72481710 </i>
   </energy>
  </scstep>
  <scstep>
   <time name="total">    0.92    0.92</time>
   <energy>
    <i name="e_fr_energy">   -172.72482490 </i>
    <i name="e_wo_entrp">   -172.72482490 </i>
    <i name="e_0_energy">   -172.72482490 </i>
   </energy>
  </scstep>
  <scstep>
   <time name="total">    0.92    0.93</time>
   <energy>
    <i name="e_fr_energy">   -172.72483172 </i>
    <i name="e_wo_entrp">   -172.72483172 </i>
    <i name="e_0_energy">   -172.72483172 </i>
   </energy>
  </scstep>
  <scstep>
   <time name="total">    0.92    0.92</time>
   <energy>
    <i name="e_fr_energy">   -172.72482940 </i>
    <i name="e_wo_entrp">   -172.72482940 </i>
    <i name="e_0_energy">   -172.72482940 </i>
   </energy>
  </scstep>
  <scstep>
   <time name="total">    0.92    0.92</time>
   <energy>
    <i name="e_fr_energy">   -172.72482530 </i>
    <i name="e_wo_entrp">   -172.72482530 </i>
    <i name="e_0_energy">   -172.72482530 </i>
   </energy>
  </scstep>
  <scstep>
   <time name="total">    0.92    0.92</time>
   <energy>
    <i name="e_fr_energy">   -172.72482530 </i>
    <i name="e_wo_entrp">   -172.72482530 </i>
    <i name="e_0_energy">   -172.72482530 </i>
   </energy>
  </scstep>
  <scstep>
   <time name="total">    1.69    1.23</time>
   <energy>
    <i name="e_fr_energy">     -0.48305723 </i>
    <i name="e_wo_entrp">     -0.48305723 </i>
    <i name="e_0_energy">     -0.48305723 </i>
   </energy>
  </scstep>
  <scstep>
   <time name="total">    1.69    1.23</time>
   <energy>
    <i name="e_fr_energy">     -0.48525313 </i>
    <i name="e_wo_entrp">     -0.48525313 </i>
    <i name="e_0_energy">     -0.48525313 </i>
   </energy>
  </scstep>
  <scstep>
   <time name="total">    2.08    1.29</time>
   <energy>
    <i name="e_fr_energy">     -0.48544134 </i>
    <i name="e_wo_entrp">     -0.48544134 </i>
    <i name="e_0_energy">     -0.48544134 </i>
   </energy>
  </scstep>
  <scstep>
   <time name="total">    1.70    1.24</time>
   <energy>
    <i name="e_fr_energy">     -0.48544993 </i>
    <i name="e_wo_entrp">     -0.48544993 </i>
    <i name="e_0_energy">     -0.48544993 </i>
   </energy>
  </scstep>
  <scstep>
   <time name="total">    1.70    1.24</time>
   <energy>
    <i name="e_fr_energy">     -0.48545023 </i>
    <i name="e_wo_entrp">     -0.48545023 </i>
    <i name="e_0_energy">     -0.48545023 </i>
   </energy>
  </scstep>
  <scstep>
   <time name="total">    1.65    1.19</time>
   <energy>
    <i name="e_fr_energy">     -0.48545025 </i>
    <i name="e_wo_entrp">     -0.48545025 </i>
    <i name="e_0_energy">     -0.48545025 </i>
   </energy>
  </scstep>
  <scstep>
   <time name="total">    1.59    1.13</time>
   <energy>
    <i name="e_fr_energy">     -0.48545025 </i>
    <i name="e_wo_entrp">     -0.48545025 </i>
    <i name="e_0_energy">     -0.48545025 </i>
   </energy>
  </scstep>
  <scstep>
   <time name="total">    1.58    1.12</time>
   <energy>
    <i name="e_fr_energy">     -0.48545025 </i>
    <i name="e_wo_entrp">     -0.48545025 </i>
    <i name="e_0_energy">     -0.48545025 </i>
   </energy>
  </scstep>
  <scstep>
   <time name="total">    1.57    1.11</time>
   <energy>
    <i name="e_fr_energy">     -0.48545025 </i>
    <i name="e_wo_entrp">     -0.48545025 </i>
    <i name="e_0_energy">     -0.48545025 </i>
   </energy>
  </scstep>
  <scstep>
   <time name="total">    1.68    1.22</time>
   <energy>
    <i name="e_fr_energy">     -0.48334260 </i>
    <i name="e_wo_entrp">     -0.48334260 </i>
    <i name="e_0_energy">     -0.48334260 </i>
   </energy>
  </scstep>
  <scstep>
   <time name="total">    1.68    1.22</time>
   <energy>
    <i name="e_fr_energy">     -0.48549346 </i>
    <i name="e_wo_entrp">     -0.48549346 </i>
    <i name="e_0_energy">     -0.48549346 </i>
   </energy>
  </scstep>
  <scstep>
   <time name="total">    1.69    1.23</time>
   <energy>
    <i name="e_fr_energy">     -0.48568181 </i>
    <i name="e_wo_entrp">     -0.48568181 </i>
    <i name="e_0_energy">     -0.48568181 </i>
   </energy>
  </scstep>
  <scstep>
   <time name="total">    1.71    1.25</time>
   <energy>
    <i name="e_fr_energy">     -0.48569041 </i>
    <i name="e_wo_entrp">     -0.48569041 </i>
    <i name="e_0_energy">     -0.48569041 </i>
   </energy>
  </scstep>
  <scstep>
   <time name="total">    1.71    1.24</time>
   <energy>
    <i name="e_fr_energy">     -0.48569071 </i>
    <i name="e_wo_entrp">     -0.48569071 </i>
    <i name="e_0_energy">     -0.48569071 </i>
   </energy>
  </scstep>
  <scstep>
   <time name="total">    1.64    1.18</time>
   <energy>
    <i name="e_fr_energy">     -0.48569073 </i>
    <i name="e_wo_entrp">     -0.48569073 </i>
    <i name="e_0_energy">     -0.48569073 </i>
   </energy>
  </scstep>
  <scstep>
   <time name="total">    1.61    1.14</time>
   <energy>
    <i name="e_fr_energy">     -0.48569074 </i>
    <i name="e_wo_entrp">     -0.48569074 </i>
    <i name="e_0_energy">     -0.48569074 </i>
   </energy>
  </scstep>
  <scstep>
   <time name="total">    1.59    1.13</time>
   <energy>
    <i name="e_fr_energy">     -0.48569074 </i>
    <i name="e_wo_entrp">     -0.48569074 </i>
    <i name="e_0_energy">     -0.48569074 </i>
   </energy>
  </scstep>
  <scstep>
   <time name="total">    1.58    1.11</time>
   <energy>
    <i name="e_fr_energy">     -0.48569074 </i>
    <i name="e_wo_entrp">     -0.48569074 </i>
    <i name="e_0_energy">     -0.48569074 </i>
   </energy>
  </scstep>
  <scstep>
   <time name="total">    1.69    1.23</time>
   <energy>
    <i name="e_fr_energy">     -0.48761148 </i>
    <i name="e_wo_entrp">     -0.48761148 </i>
    <i name="e_0_energy">     -0.48761148 </i>
   </energy>
  </scstep>
  <scstep>
   <time name="total">    1.68    1.21</time>
   <energy>
    <i name="e_fr_energy">     -0.48965797 </i>
    <i name="e_wo_entrp">     -0.48965797 </i>
    <i name="e_0_energy">     -0.48965797 </i>
   </energy>
  </scstep>
  <scstep>
   <time name="total">    1.68    1.22</time>
   <energy>
    <i name="e_fr_energy">     -0.48984903 </i>
    <i name="e_wo_entrp">     -0.48984903 </i>
    <i name="e_0_energy">     -0.48984903 </i>
   </energy>
  </scstep>
  <scstep>
   <time name="total">    1.69    1.23</time>
   <energy>
    <i name="e_fr_energy">     -0.48985796 </i>
    <i name="e_wo_entrp">     -0.48985796 </i>
    <i name="e_0_energy">     -0.48985796 </i>
   </energy>
  </scstep>
  <scstep>
   <time name="total">    1.69    1.23</time>
   <energy>
    <i name="e_fr_energy">     -0.48985826 </i>
    <i name="e_wo_entrp">     -0.48985826 </i>
    <i name="e_0_energy">     -0.48985826 </i>
   </energy>
  </scstep>
  <scstep>
   <time name="total">    1.65    1.19</time>
   <energy>
    <i name="e_fr_energy">     -0.48985828 </i>
    <i name="e_wo_entrp">     -0.48985828 </i>
    <i name="e_0_energy">     -0.48985828 </i>
   </energy>
  </scstep>
  <scstep>
   <time name="total">    1.59    1.13</time>
   <energy>
    <i name="e_fr_energy">     -0.48985829 </i>
    <i name="e_wo_entrp">     -0.48985829 </i>
    <i name="e_0_energy">     -0.48985829 </i>
   </energy>
  </scstep>
  <scstep>
   <time name="total">    1.56    1.11</time>
   <energy>
    <i name="e_fr_energy">     -0.48985829 </i>
    <i name="e_wo_entrp">     -0.48985829 </i>
    <i name="e_0_energy">     -0.48985829 </i>
   </energy>
  </scstep>
  <scstep>
   <time name="total">    1.56    1.10</time>
   <energy>
    <i name="e_fr_energy">     -0.48985829 </i>
    <i name="e_wo_entrp">     -0.48985829 </i>
    <i name="e_0_energy">     -0.48985829 </i>
   </energy>
  </scstep>
  <scstep>
   <time name="total">    1.67    1.12</time>
   <energy>
    <i name="e_fr_energy">     -0.48985829 </i>
    <i name="e_wo_entrp">     -0.48985829 </i>
    <i name="e_0_energy">     -0.48985829 </i>
   </energy>
  </scstep>
  <varray name="dielectric_ipa" >
   <v>       2.58937464       0.00000000       0.00000000 </v>
   <v>       0.00000000       2.59015936       0.00011339 </v>
   <v>       0.00000000       0.00011375       2.60381192 </v>
  </varray>
  <kpoints>
   <generation param="Gamma">
    <v type="int" name="divisions">       4        4        4 </v>
    <v name="usershift">      0.00000000       0.00000000       0.00000000 </v>
    <v name="genvec1">      0.25000000       0.00000000       0.00000000 </v>
    <v name="genvec2">      0.00000000       0.25000000       0.00000000 </v>
    <v name="genvec3">      0.00000000       0.00000000       0.25000000 </v>
    <v name="shift">      0.00000000       0.00000000       0.00000000 </v>
   </generation>
   <varray name="kpointlist" >
    <v>       0.00000000       0.00000000       0.00000000 </v>
    <v>       0.25000000       0.00000000       0.00000000 </v>
    <v>       0.00000000       0.25000000       0.00000000 </v>
    <v>       0.50000000       0.00000000       0.00000000 </v>
    <v>       0.00000000       0.50000000       0.00000000 </v>
    <v>       0.25000000       0.25000000       0.00000000 </v>
    <v>       0.50000000       0.25000000       0.00000000 </v>
    <v>       0.00000000       0.00000000       0.25000000 </v>
    <v>       0.25000000       0.00000000       0.25000000 </v>
    <v>       0.00000000       0.25000000       0.25000000 </v>
    <v>      -0.25000000       0.00000000       0.25000000 </v>
    <v>       0.00000000      -0.25000000       0.25000000 </v>
    <v>       0.50000000       0.00000000       0.25000000 </v>
    <v>       0.00000000       0.50000000       0.25000000 </v>
    <v>       0.25000000       0.25000000       0.25000000 </v>
    <v>       0.50000000       0.25000000       0.25000000 </v>
    <v>      -0.25000000      -0.25000000       0.25000000 </v>
    <v>       0.00000000       0.00000000       0.50000000 </v>
    <v>       0.25000000       0.00000000       0.50000000 </v>
    <v>       0.00000000       0.25000000       0.50000000 </v>
    <v>       0.50000000       0.00000000       0.50000000 </v>
    <v>       0.00000000       0.50000000       0.50000000 </v>
    <v>       0.25000000       0.25000000       0.50000000 </v>
    <v>       0.50000000       0.25000000       0.50000000 </v>
   </varray>
   <varray name="weights" >
    <v>       0.01562500 </v>
    <v>       0.06250000 </v>
    <v>       0.03125000 </v>
    <v>       0.03125000 </v>
    <v>       0.01562500 </v>
    <v>       0.06250000 </v>
    <v>       0.03125000 </v>
    <v>       0.03125000 </v>
    <v>       0.06250000 </v>
    <v>       0.03125000 </v>
    <v>       0.06250000 </v>
    <v>       0.03125000 </v>
    <v>       0.06250000 </v>
    <v>       0.03125000 </v>
    <v>       0.06250000 </v>
    <v>       0.06250000 </v>
    <v>       0.06250000 </v>
    <v>       0.01562500 </v>
    <v>       0.06250000 </v>
    <v>       0.03125000 </v>
    <v>       0.03125000 </v>
    <v>       0.01562500 </v>
    <v>       0.06250000 </v>
    <v>       0.03125000 </v>
   </varray>
  </kpoints>
  <scstep>
   <time name="total">    1.68    1.22</time>
   <energy>
    <i name="e_fr_energy">     -0.48305723 </i>
    <i name="e_wo_entrp">     -0.48305723 </i>
    <i name="e_0_energy">     -0.48305723 </i>
   </energy>
  </scstep>
  <scstep>
   <time name="total">    1.74    1.26</time>
   <energy>
    <i name="e_fr_energy">     -0.48525313 </i>
    <i name="e_wo_entrp">     -0.48525313 </i>
    <i name="e_0_energy">     -0.48525313 </i>
   </energy>
  </scstep>
  <scstep>
   <time name="total">    1.75    1.28</time>
   <energy>
    <i name="e_fr_energy">     -0.46493091 </i>
    <i name="e_wo_entrp">     -0.46493091 </i>
    <i name="e_0_energy">     -0.46493091 </i>
   </energy>
  </scstep>
  <scstep>
   <time name="total">    1.76    1.28</time>
   <energy>
    <i name="e_fr_energy">     -0.47595588 </i>
    <i name="e_wo_entrp">     -0.47595588 </i>
    <i name="e_0_energy">     -0.47595588 </i>
   </energy>
  </scstep>
  <scstep>
   <time name="total">    1.75    1.27</time>
   <energy>
    <i name="e_fr_energy">     -0.49369033 </i>
    <i name="e_wo_entrp">     -0.49369033 </i>
    <i name="e_0_energy">     -0.49369033 </i>
   </energy>
  </scstep>
  <scstep>
   <time name="total">    1.74    1.26</time>
   <energy>
    <i name="e_fr_energy">     -0.49660641 </i>
    <i name="e_wo_entrp">     -0.49660641 </i>
    <i name="e_0_energy">     -0.49660641 </i>
   </energy>
  </scstep>
  <scstep>
   <time name="total">    1.84    1.30</time>
   <energy>
    <i name="e_fr_energy">     -0.49685333 </i>
    <i name="e_wo_entrp">     -0.49685333 </i>
    <i name="e_0_energy">     -0.49685333 </i>
   </energy>
  </scstep>
  <scstep>
   <time name="total">    1.78    1.28</time>
   <energy>
    <i name="e_fr_energy">     -0.49708438 </i>
    <i name="e_wo_entrp">     -0.49708438 </i>
    <i name="e_0_energy">     -0.49708438 </i>
   </energy>
  </scstep>
  <scstep>
   <time name="total">    1.76    1.28</time>
   <energy>
    <i name="e_fr_energy">     -0.49714634 </i>
    <i name="e_wo_entrp">     -0.49714634 </i>
    <i name="e_0_energy">     -0.49714634 </i>
   </energy>
  </scstep>
  <scstep>
   <time name="total">    1.76    1.28</time>
   <energy>
    <i name="e_fr_energy">     -0.49714241 </i>
    <i name="e_wo_entrp">     -0.49714241 </i>
    <i name="e_0_energy">     -0.49714241 </i>
   </energy>
  </scstep>
  <scstep>
   <time name="total">    1.76    1.27</time>
   <energy>
    <i name="e_fr_energy">     -0.49714326 </i>
    <i name="e_wo_entrp">     -0.49714326 </i>
    <i name="e_0_energy">     -0.49714326 </i>
   </energy>
  </scstep>
  <scstep>
   <time name="total">    1.70    1.22</time>
   <energy>
    <i name="e_fr_energy">     -0.49714327 </i>
    <i name="e_wo_entrp">     -0.49714327 </i>
    <i name="e_0_energy">     -0.49714327 </i>
   </energy>
  </scstep>
  <scstep>
   <time name="total">    1.69    1.21</time>
   <energy>
    <i name="e_fr_energy">     -0.49714330 </i>
    <i name="e_wo_entrp">     -0.49714330 </i>
    <i name="e_0_energy">     -0.49714330 </i>
   </energy>
  </scstep>
  <scstep>
   <time name="total">    1.71    1.23</time>
   <energy>
    <i name="e_fr_energy">     -0.49714331 </i>
    <i name="e_wo_entrp">     -0.49714331 </i>
    <i name="e_0_energy">     -0.49714331 </i>
   </energy>
  </scstep>
  <kpoints>
   <generation param="Gamma">
    <v type="int" name="divisions">       4        4        4 </v>
    <v name="usershift">      0.00000000       0.00000000       0.00000000 </v>
    <v name="genvec1">      0.25000000       0.00000000       0.00000000 </v>
    <v name="genvec2">      0.00000000       0.25000000       0.00000000 </v>
    <v name="genvec3">      0.00000000       0.00000000       0.25000000 </v>
    <v name="shift">      0.00000000       0.00000000       0.00000000 </v>
   </generation>
   <varray name="kpointlist" >
    <v>       0.00000000       0.00000000       0.00000000 </v>
    <v>       0.25000000       0.00000000       0.00000000 </v>
    <v>       0.00000000       0.25000000       0.00000000 </v>
    <v>      -0.25000000       0.25000000       0.00000000 </v>
    <v>       0.50000000       0.00000000       0.00000000 </v>
    <v>       0.00000000       0.50000000       0.00000000 </v>
    <v>       0.50000000       0.50000000       0.00000000 </v>
    <v>       0.25000000       0.25000000       0.00000000 </v>
    <v>      -0.25000000       0.50000000       0.00000000 </v>
    <v>       0.50000000       0.25000000       0.00000000 </v>
    <v>       0.00000000       0.00000000       0.25000000 </v>
    <v>       0.25000000       0.00000000       0.25000000 </v>
    <v>       0.00000000       0.25000000       0.25000000 </v>
    <v>      -0.25000000       0.25000000       0.25000000 </v>
    <v>      -0.25000000       0.00000000       0.25000000 </v>
    <v>       0.00000000      -0.25000000       0.25000000 </v>
    <v>       0.25000000      -0.25000000       0.25000000 </v>
    <v>       0.50000000       0.00000000       0.25000000 </v>
    <v>       0.00000000       0.50000000       0.25000000 </v>
    <v>       0.50000000       0.50000000       0.25000000 </v>
    <v>       0.25000000       0.25000000       0.25000000 </v>
    <v>      -0.25000000       0.50000000       0.25000000 </v>
    <v>       0.50000000       0.25000000       0.25000000 </v>
    <v>      -0.25000000      -0.25000000       0.25000000 </v>
    <v>       0.25000000       0.50000000       0.25000000 </v>
    <v>       0.50000000      -0.25000000       0.25000000 </v>
    <v>       0.00000000       0.00000000       0.50000000 </v>
    <v>       0.25000000       0.00000000       0.50000000 </v>
    <v>       0.00000000       0.25000000       0.50000000 </v>
    <v>      -0.25000000       0.25000000       0.50000000 </v>
    <v>       0.50000000       0.00000000       0.50000000 </v>
    <v>       0.00000000       0.50000000       0.50000000 </v>
    <v>       0.50000000       0.50000000       0.50000000 </v>
    <v>       0.25000000       0.25000000       0.50000000 </v>
    <v>      -0.25000000       0.50000000       0.50000000 </v>
    <v>       0.50000000       0.25000000       0.50000000 </v>
   </varray>
   <varray name="weights" >
    <v>       0.01562500 </v>
    <v>       0.03125000 </v>
    <v>       0.03125000 </v>
    <v>       0.03125000 </v>
    <v>       0.01562500 </v>
    <v>       0.01562500 </v>
    <v>       0.01562500 </v>
    <v>       0.03125000 </v>
    <v>       0.03125000 </v>
    <v>       0.03125000 </v>
    <v>       0.03125000 </v>
    <v>       0.03125000 </v>
    <v>       0.03125000 </v>
    <v>       0.03125000 </v>
    <v>       0.03125000 </v>
    <v>       0.03125000 </v>
    <v>       0.03125000 </v>
    <v>       0.03125000 </v>
    <v>       0.03125000 </v>
    <v>       0.03125000 </v>
    <v>       0.03125000 </v>
    <v>       0.03125000 </v>
    <v>       0.03125000 </v>
    <v>       0.03125000 </v>
    <v>       0.03125000 </v>
    <v>       0.03125000 </v>
    <v>       0.01562500 </v>
    <v>       0.03125000 </v>
    <v>       0.03125000 </v>
    <v>       0.03125000 </v>
    <v>       0.01562500 </v>
    <v>       0.01562500 </v>
    <v>       0.01562500 </v>
    <v>       0.03125000 </v>
    <v>       0.03125000 </v>
    <v>       0.03125000 </v>
   </varray>
  </kpoints>
  <scstep>
   <time name="total">    2.22    1.76</time>
   <energy>
    <i name="e_fr_energy">     -0.48334263 </i>
    <i name="e_wo_entrp">     -0.48334263 </i>
    <i name="e_0_energy">     -0.48334263 </i>
   </energy>
  </scstep>
  <scstep>
   <time name="total">    2.41    1.94</time>
   <energy>
    <i name="e_fr_energy">     -0.48549349 </i>
    <i name="e_wo_entrp">     -0.48549349 </i>
    <i name="e_0_energy">     -0.48549349 </i>
   </energy>
  </scstep>
  <scstep>
   <time name="total">    2.32    1.85</time>
   <energy>
    <i name="e_fr_energy">     -0.46525487 </i>
    <i name="e_wo_entrp">     -0.46525487 </i>
    <i name="e_0_energy">     -0.46525487 </i>
   </energy>
  </scstep>
  <scstep>
   <time name="total">    2.34    1.86</time>
   <energy>
    <i name="e_fr_energy">     -0.47608292 </i>
    <i name="e_wo_entrp">     -0.47608292 </i>
    <i name="e_0_energy">     -0.47608292 </i>
   </energy>
  </scstep>
  <scstep>
   <time name="total">    2.33    1.85</time>
   <energy>
    <i name="e_fr_energy">     -0.49385034 </i>
    <i name="e_wo_entrp">     -0.49385034 </i>
    <i name="e_0_energy">     -0.49385034 </i>
   </energy>
  </scstep>
  <scstep>
   <time name="total">    2.31    1.82</time>
   <energy>
    <i name="e_fr_energy">     -0.49677916 </i>
    <i name="e_wo_entrp">     -0.49677916 </i>
    <i name="e_0_energy">     -0.49677916 </i>
   </energy>
  </scstep>
  <scstep>
   <time name="total">    2.33    1.86</time>
   <energy>
    <i name="e_fr_energy">     -0.49701999 </i>
    <i name="e_wo_entrp">     -0.49701999 </i>
    <i name="e_0_energy">     -0.49701999 </i>
   </energy>
  </scstep>
  <scstep>
   <time name="total">    2.33    1.85</time>
   <energy>
    <i name="e_fr_energy">     -0.49725249 </i>
    <i name="e_wo_entrp">     -0.49725249 </i>
    <i name="e_0_energy">     -0.49725249 </i>
   </energy>
  </scstep>
  <scstep>
   <time name="total">    2.33    1.85</time>
   <energy>
    <i name="e_fr_energy">     -0.49731820 </i>
    <i name="e_wo_entrp">     -0.49731820 </i>
    <i name="e_0_energy">     -0.49731820 </i>
   </energy>
  </scstep>
  <scstep>
   <time name="total">    2.41    1.87</time>
   <energy>
    <i name="e_fr_energy">     -0.49731319 </i>
    <i name="e_wo_entrp">     -0.49731319 </i>
    <i name="e_0_energy">     -0.49731319 </i>
   </energy>
  </scstep>
  <scstep>
   <time name="total">    2.33    1.85</time>
   <energy>
    <i name="e_fr_energy">     -0.49731432 </i>
    <i name="e_wo_entrp">     -0.49731432 </i>
    <i name="e_0_energy">     -0.49731432 </i>
   </energy>
  </scstep>
  <scstep>
   <time name="total">    2.25    1.77</time>
   <energy>
    <i name="e_fr_energy">     -0.49731436 </i>
    <i name="e_wo_entrp">     -0.49731436 </i>
    <i name="e_0_energy">     -0.49731436 </i>
   </energy>
  </scstep>
  <scstep>
   <time name="total">    2.24    1.76</time>
   <energy>
    <i name="e_fr_energy">     -0.49731436 </i>
    <i name="e_wo_entrp">     -0.49731436 </i>
    <i name="e_0_energy">     -0.49731436 </i>
   </energy>
  </scstep>
  <scstep>
   <time name="total">    2.28    1.80</time>
   <energy>
    <i name="e_fr_energy">     -0.49731429 </i>
    <i name="e_wo_entrp">     -0.49731429 </i>
    <i name="e_0_energy">     -0.49731429 </i>
   </energy>
  </scstep>
  <kpoints>
   <generation param="Gamma">
    <v type="int" name="divisions">       4        4        4 </v>
    <v name="usershift">      0.00000000       0.00000000       0.00000000 </v>
    <v name="genvec1">      0.25000000       0.00000000       0.00000000 </v>
    <v name="genvec2">      0.00000000       0.25000000       0.00000000 </v>
    <v name="genvec3">      0.00000000       0.00000000       0.25000000 </v>
    <v name="shift">      0.00000000       0.00000000       0.00000000 </v>
   </generation>
   <varray name="kpointlist" >
    <v>       0.00000000       0.00000000       0.00000000 </v>
    <v>       0.25000000       0.00000000       0.00000000 </v>
    <v>       0.00000000       0.25000000       0.00000000 </v>
    <v>      -0.25000000       0.25000000       0.00000000 </v>
    <v>       0.50000000       0.00000000       0.00000000 </v>
    <v>       0.00000000       0.50000000       0.00000000 </v>
    <v>       0.50000000       0.50000000       0.00000000 </v>
    <v>       0.25000000       0.25000000       0.00000000 </v>
    <v>      -0.25000000       0.50000000       0.00000000 </v>
    <v>       0.50000000       0.25000000       0.00000000 </v>
    <v>       0.00000000       0.00000000       0.25000000 </v>
    <v>       0.25000000       0.00000000       0.25000000 </v>
    <v>       0.00000000       0.25000000       0.25000000 </v>
    <v>      -0.25000000       0.25000000       0.25000000 </v>
    <v>      -0.25000000       0.00000000       0.25000000 </v>
    <v>       0.00000000      -0.25000000       0.25000000 </v>
    <v>       0.25000000      -0.25000000       0.25000000 </v>
    <v>       0.50000000       0.00000000       0.25000000 </v>
    <v>       0.00000000       0.50000000       0.25000000 </v>
    <v>       0.50000000       0.50000000       0.25000000 </v>
    <v>       0.25000000       0.25000000       0.25000000 </v>
    <v>      -0.25000000       0.50000000       0.25000000 </v>
    <v>       0.50000000       0.25000000       0.25000000 </v>
    <v>      -0.25000000      -0.25000000       0.25000000 </v>
    <v>       0.25000000       0.50000000       0.25000000 </v>
    <v>       0.50000000      -0.25000000       0.25000000 </v>
    <v>       0.00000000       0.00000000       0.50000000 </v>
    <v>       0.25000000       0.00000000       0.50000000 </v>
    <v>       0.00000000       0.25000000       0.50000000 </v>
    <v>      -0.25000000       0.25000000       0.50000000 </v>
    <v>       0.50000000       0.00000000       0.50000000 </v>
    <v>       0.00000000       0.50000000       0.50000000 </v>
    <v>       0.50000000       0.50000000       0.50000000 </v>
    <v>       0.25000000       0.25000000       0.50000000 </v>
    <v>      -0.25000000       0.50000000       0.50000000 </v>
    <v>       0.50000000       0.25000000       0.50000000 </v>
   </varray>
   <varray name="weights" >
    <v>       0.01562500 </v>
    <v>       0.03125000 </v>
    <v>       0.03125000 </v>
    <v>       0.03125000 </v>
    <v>       0.01562500 </v>
    <v>       0.01562500 </v>
    <v>       0.01562500 </v>
    <v>       0.03125000 </v>
    <v>       0.03125000 </v>
    <v>       0.03125000 </v>
    <v>       0.03125000 </v>
    <v>       0.03125000 </v>
    <v>       0.03125000 </v>
    <v>       0.03125000 </v>
    <v>       0.03125000 </v>
    <v>       0.03125000 </v>
    <v>       0.03125000 </v>
    <v>       0.03125000 </v>
    <v>       0.03125000 </v>
    <v>       0.03125000 </v>
    <v>       0.03125000 </v>
    <v>       0.03125000 </v>
    <v>       0.03125000 </v>
    <v>       0.03125000 </v>
    <v>       0.03125000 </v>
    <v>       0.03125000 </v>
    <v>       0.01562500 </v>
    <v>       0.03125000 </v>
    <v>       0.03125000 </v>
    <v>       0.03125000 </v>
    <v>       0.01562500 </v>
    <v>       0.01562500 </v>
    <v>       0.01562500 </v>
    <v>       0.03125000 </v>
    <v>       0.03125000 </v>
    <v>       0.03125000 </v>
   </varray>
  </kpoints>
  <scstep>
   <time name="total">    2.22    1.76</time>
   <energy>
    <i name="e_fr_energy">     -0.48761149 </i>
    <i name="e_wo_entrp">     -0.48761149 </i>
    <i name="e_0_energy">     -0.48761149 </i>
   </energy>
  </scstep>
  <scstep>
   <time name="total">    2.28    1.81</time>
   <energy>
    <i name="e_fr_energy">     -0.48965792 </i>
    <i name="e_wo_entrp">     -0.48965792 </i>
    <i name="e_0_energy">     -0.48965792 </i>
   </energy>
  </scstep>
  <scstep>
   <time name="total">    2.31    1.84</time>
   <energy>
    <i name="e_fr_energy">     -0.47533137 </i>
    <i name="e_wo_entrp">     -0.47533137 </i>
    <i name="e_0_energy">     -0.47533137 </i>
   </energy>
  </scstep>
  <scstep>
   <time name="total">    2.35    1.86</time>
   <energy>
    <i name="e_fr_energy">     -0.48770420 </i>
    <i name="e_wo_entrp">     -0.48770420 </i>
    <i name="e_0_energy">     -0.48770420 </i>
   </energy>
  </scstep>
  <scstep>
   <time name="total">    2.35    1.87</time>
   <energy>
    <i name="e_fr_energy">     -0.50390916 </i>
    <i name="e_wo_entrp">     -0.50390916 </i>
    <i name="e_0_energy">     -0.50390916 </i>
   </energy>
  </scstep>
  <scstep>
   <time name="total">    2.30    1.82</time>
   <energy>
    <i name="e_fr_energy">     -0.50676193 </i>
    <i name="e_wo_entrp">     -0.50676193 </i>
    <i name="e_0_energy">     -0.50676193 </i>
   </energy>
  </scstep>
  <scstep>
   <time name="total">    2.35    1.86</time>
   <energy>
    <i name="e_fr_energy">     -0.50696540 </i>
    <i name="e_wo_entrp">     -0.50696540 </i>
    <i name="e_0_energy">     -0.50696540 </i>
   </energy>
  </scstep>
  <scstep>
   <time name="total">    2.32    1.85</time>
   <energy>
    <i name="e_fr_energy">     -0.50722048 </i>
    <i name="e_wo_entrp">     -0.50722048 </i>
    <i name="e_0_energy">     -0.50722048 </i>
   </energy>
  </scstep>
  <scstep>
   <time name="total">    2.33    1.86</time>
   <energy>
    <i name="e_fr_energy">     -0.50724980 </i>
    <i name="e_wo_entrp">     -0.50724980 </i>
    <i name="e_0_energy">     -0.50724980 </i>
   </energy>
  </scstep>
  <scstep>
   <time name="total">    2.34    1.86</time>
   <energy>
    <i name="e_fr_energy">     -0.50724852 </i>
    <i name="e_wo_entrp">     -0.50724852 </i>
    <i name="e_0_energy">     -0.50724852 </i>
   </energy>
  </scstep>
  <scstep>
   <time name="total">    2.35    1.88</time>
   <energy>
    <i name="e_fr_energy">     -0.50724650 </i>
    <i name="e_wo_entrp">     -0.50724650 </i>
    <i name="e_0_energy">     -0.50724650 </i>
   </energy>
  </scstep>
  <scstep>
   <time name="total">    2.26    1.77</time>
   <energy>
    <i name="e_fr_energy">     -0.50724691 </i>
    <i name="e_wo_entrp">     -0.50724691 </i>
    <i name="e_0_energy">     -0.50724691 </i>
   </energy>
  </scstep>
  <scstep>
   <time name="total">    2.33    1.84</time>
   <energy>
    <i name="e_fr_energy">     -0.50724688 </i>
    <i name="e_wo_entrp">     -0.50724688 </i>
    <i name="e_0_energy">     -0.50724688 </i>
   </energy>
  </scstep>
  <scstep>
   <time name="total">    2.29    1.80</time>
   <energy>
    <i name="e_fr_energy">     -0.50724697 </i>
    <i name="e_wo_entrp">     -0.50724697 </i>
    <i name="e_0_energy">     -0.50724697 </i>
   </energy>
  </scstep>
  <kpoints>
   <generation param="Gamma">
    <v type="int" name="divisions">       4        4        4 </v>
    <v name="usershift">      0.00000000       0.00000000       0.00000000 </v>
    <v name="genvec1">      0.25000000       0.00000000       0.00000000 </v>
    <v name="genvec2">      0.00000000       0.25000000       0.00000000 </v>
    <v name="genvec3">      0.00000000       0.00000000       0.25000000 </v>
    <v name="shift">      0.00000000       0.00000000       0.00000000 </v>
   </generation>
   <varray name="kpointlist" >
    <v>       0.00000000       0.00000000       0.00000000 </v>
    <v>       0.25000000       0.00000000       0.00000000 </v>
    <v>       0.00000000       0.25000000       0.00000000 </v>
    <v>       0.50000000       0.00000000       0.00000000 </v>
    <v>       0.00000000       0.50000000       0.00000000 </v>
    <v>       0.25000000       0.25000000       0.00000000 </v>
    <v>       0.50000000       0.25000000       0.00000000 </v>
    <v>       0.00000000       0.00000000       0.25000000 </v>
    <v>       0.25000000       0.00000000       0.25000000 </v>
    <v>       0.00000000       0.25000000       0.25000000 </v>
    <v>      -0.25000000       0.00000000       0.25000000 </v>
    <v>       0.00000000      -0.25000000       0.25000000 </v>
    <v>       0.50000000       0.00000000       0.25000000 </v>
    <v>       0.00000000       0.50000000       0.25000000 </v>
    <v>       0.25000000       0.25000000       0.25000000 </v>
    <v>       0.50000000       0.25000000       0.25000000 </v>
    <v>      -0.25000000      -0.25000000       0.25000000 </v>
    <v>       0.00000000       0.00000000       0.50000000 </v>
    <v>       0.25000000       0.00000000       0.50000000 </v>
    <v>       0.00000000       0.25000000       0.50000000 </v>
    <v>       0.50000000       0.00000000       0.50000000 </v>
    <v>       0.00000000       0.50000000       0.50000000 </v>
    <v>       0.25000000       0.25000000       0.50000000 </v>
    <v>       0.50000000       0.25000000       0.50000000 </v>
   </varray>
   <varray name="weights" >
    <v>       0.01562500 </v>
    <v>       0.06250000 </v>
    <v>       0.03125000 </v>
    <v>       0.03125000 </v>
    <v>       0.01562500 </v>
    <v>       0.06250000 </v>
    <v>       0.03125000 </v>
    <v>       0.03125000 </v>
    <v>       0.06250000 </v>
    <v>       0.03125000 </v>
    <v>       0.06250000 </v>
    <v>       0.03125000 </v>
    <v>       0.06250000 </v>
    <v>       0.03125000 </v>
    <v>       0.06250000 </v>
    <v>       0.06250000 </v>
    <v>       0.06250000 </v>
    <v>       0.01562500 </v>
    <v>       0.06250000 </v>
    <v>       0.03125000 </v>
    <v>       0.03125000 </v>
    <v>       0.01562500 </v>
    <v>       0.06250000 </v>
    <v>       0.03125000 </v>
   </varray>
  </kpoints>
  <varray name="dielectric_dft" >
   <v>       2.48056903       0.00000000       0.00000000 </v>
   <v>       0.00000000       2.48108599       0.00013897 </v>
   <v>       0.00000000       0.00013810       2.51335025 </v>
  </varray>
  <varray name="epsilon" >
   <v>       2.48056903       0.00000000       0.00000000 </v>
   <v>       0.00000000       2.48108599       0.00013897 </v>
   <v>       0.00000000       0.00013810       2.51335025 </v>
  </varray>
  <kpoints>
   <generation param="Gamma">
    <v type="int" name="divisions">       4        4        4 </v>
    <v name="usershift">      0.00000000       0.00000000       0.00000000 </v>
    <v name="genvec1">      0.25000000       0.00000000       0.00000000 </v>
    <v name="genvec2">      0.00000000       0.25000000       0.00000000 </v>
    <v name="genvec3">      0.00000000       0.00000000       0.25000000 </v>
    <v name="shift">      0.00000000       0.00000000       0.00000000 </v>
   </generation>
   <varray name="kpointlist" >
    <v>       0.00000000       0.00000000       0.00000000 </v>
    <v>       0.25000000       0.00000000       0.00000000 </v>
    <v>       0.00000000       0.25000000       0.00000000 </v>
    <v>       0.50000000       0.00000000       0.00000000 </v>
    <v>       0.00000000       0.50000000       0.00000000 </v>
    <v>       0.25000000       0.25000000       0.00000000 </v>
    <v>       0.50000000       0.25000000       0.00000000 </v>
    <v>       0.00000000       0.00000000       0.25000000 </v>
    <v>       0.25000000       0.00000000       0.25000000 </v>
    <v>       0.00000000       0.25000000       0.25000000 </v>
    <v>      -0.25000000       0.00000000       0.25000000 </v>
    <v>       0.00000000      -0.25000000       0.25000000 </v>
    <v>       0.50000000       0.00000000       0.25000000 </v>
    <v>       0.00000000       0.50000000       0.25000000 </v>
    <v>       0.25000000       0.25000000       0.25000000 </v>
    <v>       0.50000000       0.25000000       0.25000000 </v>
    <v>      -0.25000000      -0.25000000       0.25000000 </v>
    <v>       0.00000000       0.00000000       0.50000000 </v>
    <v>       0.25000000       0.00000000       0.50000000 </v>
    <v>       0.00000000       0.25000000       0.50000000 </v>
    <v>       0.50000000       0.00000000       0.50000000 </v>
    <v>       0.00000000       0.50000000       0.50000000 </v>
    <v>       0.25000000       0.25000000       0.50000000 </v>
    <v>       0.50000000       0.25000000       0.50000000 </v>
   </varray>
   <varray name="weights" >
    <v>       0.01562500 </v>
    <v>       0.06250000 </v>
    <v>       0.03125000 </v>
    <v>       0.03125000 </v>
    <v>       0.01562500 </v>
    <v>       0.06250000 </v>
    <v>       0.03125000 </v>
    <v>       0.03125000 </v>
    <v>       0.06250000 </v>
    <v>       0.03125000 </v>
    <v>       0.06250000 </v>
    <v>       0.03125000 </v>
    <v>       0.06250000 </v>
    <v>       0.03125000 </v>
    <v>       0.06250000 </v>
    <v>       0.06250000 </v>
    <v>       0.06250000 </v>
    <v>       0.01562500 </v>
    <v>       0.06250000 </v>
    <v>       0.03125000 </v>
    <v>       0.03125000 </v>
    <v>       0.01562500 </v>
    <v>       0.06250000 </v>
    <v>       0.03125000 </v>
   </varray>
  </kpoints>
  <array name="born_charges" >
   <dimension dim="1">ion</dimension>
   <set>
    <v>       2.98034356       0.00000000      -0.00000000 </v>
    <v>       0.00000000       3.61942636      -0.32270052 </v>
    <v>       0.00000000       0.27916739       3.42500072 </v>
   </set>
   <set>
    <v>       3.46104055       0.27631523       0.27785666 </v>
    <v>       0.27814055       3.14064097       0.16008951 </v>
    <v>      -0.24068436      -0.13817160       3.42538967 </v>
   </set>
   <set>
    <v>       3.46104055      -0.27631523      -0.27785666 </v>
    <v>      -0.27814055       3.14064097       0.16008951 </v>
    <v>       0.24068436      -0.13817160       3.42538967 </v>
   </set>
   <set>
    <v>      -1.31146040      -0.49329098      -0.30967148 </v>
    <v>      -0.43735843      -1.98978569      -0.67836806 </v>
    <v>      -0.24426904      -0.72147834      -1.71229001 </v>
   </set>
   <set>
    <v>      -2.22225754      -0.08992457       0.74297944 </v>
    <v>      -0.03276535      -1.07810713       0.07076383 </v>
    <v>       0.74707440       0.14945721      -1.71223844 </v>
   </set>
   <set>
    <v>      -1.41749439       0.49646939      -0.43331259 </v>
    <v>       0.55493507      -1.88246134       0.60886498 </v>
    <v>      -0.50343214       0.57060904      -1.71336158 </v>
   </set>
   <set>
    <v>      -1.31146040       0.49329098       0.30967148 </v>
    <v>       0.43735843      -1.98978569      -0.67836806 </v>
    <v>       0.24426904      -0.72147834      -1.71229001 </v>
   </set>
   <set>
    <v>      -2.22225754       0.08992457      -0.74297944 </v>
    <v>       0.03276535      -1.07810713       0.07076383 </v>
    <v>      -0.74707440       0.14945721      -1.71223844 </v>
   </set>
   <set>
    <v>      -1.41749439      -0.49646939       0.43331259 </v>
    <v>      -0.55493507      -1.88246134       0.60886498 </v>
    <v>       0.50343214       0.57060904      -1.71336158 </v>
   </set>
  </array>
  <time name="totalsc">  312.84  183.19</time>
  <eigenvalues>
   <array>
    <dimension dim="1">band</dimension>
    <dimension dim="2">kpoint</dimension>
    <dimension dim="3">spin</dimension>
    <field>eigene</field>
    <field>occ</field>
    <set>
     <set comment="spin 1">
      <set comment="kpoint 1">
       <r>  -18.1720    1.0000 </r>
       <r>  -16.6275    1.0000 </r>
       <r>  -16.6126    1.0000 </r>
       <r>  -15.9572    1.0000 </r>
       <r>  -15.9417    1.0000 </r>
       <r>  -15.9373    1.0000 </r>
       <r>   -6.8851    1.0000 </r>
       <r>   -6.8728    1.0000 </r>
       <r>   -4.1465    1.0000 </r>
       <r>   -4.0641    1.0000 </r>
       <r>   -3.9148    1.0000 </r>
       <r>   -3.9073    1.0000 </r>
       <r>   -1.6896    1.0000 </r>
       <r>   -1.6817    1.0000 </r>
       <r>   -1.3748    1.0000 </r>
       <r>   -1.1507    1.0000 </r>
       <r>   -0.1565    1.0000 </r>
       <r>   -0.1543    1.0000 </r>
       <r>   -0.0980    1.0000 </r>
       <r>    0.2559    1.0000 </r>
       <r>    0.2667    1.0000 </r>
       <r>    0.4586    1.0000 </r>
       <r>    1.0008    1.0000 </r>
       <r>    1.0077    1.0000 </r>
       <r>    7.3235    0.0000 </r>
       <r>   10.6070    0.0000 </r>
       <r>   10.6099    0.0000 </r>
       <r>   11.2293    0.0000 </r>
       <r>   11.2440    0.0000 </r>
      </set>
      <set comment="kpoint 2">
       <r>  -17.9877    1.0000 </r>
       <r>  -16.8178    1.0000 </r>
       <r>  -16.5973    1.0000 </r>
       <r>  -16.0209    1.0000 </r>
       <r>  -15.9747    1.0000 </r>
       <r>  -15.9396    1.0000 </r>
       <r>   -6.9539    1.0000 </r>
       <r>   -6.5123    1.0000 </r>
       <r>   -4.2194    1.0000 </r>
       <r>   -4.1530    1.0000 </r>
       <r>   -4.0314    1.0000 </r>
       <r>   -3.6193    1.0000 </r>
       <r>   -1.8738    1.0000 </r>
       <r>   -1.5555    1.0000 </r>
       <r>   -1.3481    1.0000 </r>
       <r>   -0.8975    1.0000 </r>
       <r>   -0.6962    1.0000 </r>
       <r>   -0.2401    1.0000 </r>
       <r>   -0.1601    1.0000 </r>
       <r>    0.1771    1.0000 </r>
       <r>    0.2788    1.0000 </r>
       <r>    0.4218    1.0000 </r>
       <r>    1.0527    1.0000 </r>
       <r>    1.1429    1.0000 </r>
       <r>    8.2330    0.0000 </r>
       <r>   10.6679    0.0000 </r>
       <r>   10.7189    0.0000 </r>
       <r>   11.2059    0.0000 </r>
       <r>   11.4851    0.0000 </r>
      </set>
      <set comment="kpoint 3">
       <r>  -17.9885    1.0000 </r>
       <r>  -16.8238    1.0000 </r>
       <r>  -16.5862    1.0000 </r>
       <r>  -16.0157    1.0000 </r>
       <r>  -15.9790    1.0000 </r>
       <r>  -15.9449    1.0000 </r>
       <r>   -6.9630    1.0000 </r>
       <r>   -6.5029    1.0000 </r>
       <r>   -4.2145    1.0000 </r>
       <r>   -4.1565    1.0000 </r>
       <r>   -4.0348    1.0000 </r>
       <r>   -3.6179    1.0000 </r>
       <r>   -1.8711    1.0000 </r>
       <r>   -1.5591    1.0000 </r>
       <r>   -1.3468    1.0000 </r>
       <r>   -0.8956    1.0000 </r>
       <r>   -0.6991    1.0000 </r>
       <r>   -0.2374    1.0000 </r>
       <r>   -0.1597    1.0000 </r>
       <r>    0.1836    1.0000 </r>
       <r>    0.2731    1.0000 </r>
       <r>    0.4197    1.0000 </r>
       <r>    1.0553    1.0000 </r>
       <r>    1.1392    1.0000 </r>
       <r>    8.2329    0.0000 </r>
       <r>   10.6729    0.0000 </r>
       <r>   10.7220    0.0000 </r>
       <r>   11.2097    0.0000 </r>
       <r>   11.4779    0.0000 </r>
      </set>
      <set comment="kpoint 4">
       <r>  -17.6636    1.0000 </r>
       <r>  -17.1824    1.0000 </r>
       <r>  -16.5687    1.0000 </r>
       <r>  -16.0458    1.0000 </r>
       <r>  -16.0024    1.0000 </r>
       <r>  -15.9628    1.0000 </r>
       <r>   -7.0276    1.0000 </r>
       <r>   -6.0473    1.0000 </r>
       <r>   -4.5579    1.0000 </r>
       <r>   -4.0948    1.0000 </r>
       <r>   -4.0871    1.0000 </r>
       <r>   -3.2830    1.0000 </r>
       <r>   -1.8230    1.0000 </r>
       <r>   -1.6242    1.0000 </r>
       <r>   -1.4350    1.0000 </r>
       <r>   -1.0004    1.0000 </r>
       <r>   -0.7931    1.0000 </r>
       <r>   -0.4800    1.0000 </r>
       <r>   -0.2868    1.0000 </r>
       <r>    0.1932    1.0000 </r>
       <r>    0.2827    1.0000 </r>
       <r>    0.5605    1.0000 </r>
       <r>    1.0150    1.0000 </r>
       <r>    1.2424    1.0000 </r>
       <r>    9.6358    0.0000 </r>
       <r>   10.3690    0.0000 </r>
       <r>   10.9641    0.0000 </r>
       <r>   10.9861    0.0000 </r>
       <r>   12.0033    0.0000 </r>
      </set>
      <set comment="kpoint 5">
       <r>  -17.6678    1.0000 </r>
       <r>  -17.1814    1.0000 </r>
       <r>  -16.5573    1.0000 </r>
       <r>  -16.0437    1.0000 </r>
       <r>  -15.9971    1.0000 </r>
       <r>  -15.9783    1.0000 </r>
       <r>   -7.0365    1.0000 </r>
       <r>   -6.0372    1.0000 </r>
       <r>   -4.5526    1.0000 </r>
       <r>   -4.0986    1.0000 </r>
       <r>   -4.0933    1.0000 </r>
       <r>   -3.2793    1.0000 </r>
       <r>   -1.8255    1.0000 </r>
       <r>   -1.6197    1.0000 </r>
       <r>   -1.4345    1.0000 </r>
       <r>   -1.0026    1.0000 </r>
       <r>   -0.7909    1.0000 </r>
       <r>   -0.4785    1.0000 </r>
       <r>   -0.2897    1.0000 </r>
[...]
       <r>    1.1225    1.0000 </r>
       <r>   10.2296    0.0000 </r>
       <r>   10.7234    0.0000 </r>
       <r>   11.0094    0.0000 </r>
       <r>   11.1985    0.0000 </r>
       <r>   11.5371    0.0000 </r>
      </set>
      <set comment="kpoint 22">
       <r>  -17.5909    1.0000 </r>
       <r>  -17.1409    1.0000 </r>
       <r>  -16.6970    1.0000 </r>
       <r>  -16.0698    1.0000 </r>
       <r>  -15.9925    1.0000 </r>
       <r>  -15.9681    1.0000 </r>
       <r>   -6.8824    1.0000 </r>
       <r>   -5.9064    1.0000 </r>
       <r>   -5.0452    1.0000 </r>
       <r>   -4.0034    1.0000 </r>
       <r>   -3.7024    1.0000 </r>
       <r>   -3.6151    1.0000 </r>
       <r>   -1.9311    1.0000 </r>
       <r>   -1.9247    1.0000 </r>
       <r>   -1.1440    1.0000 </r>
       <r>   -0.8297    1.0000 </r>
       <r>   -0.7469    1.0000 </r>
       <r>   -0.2743    1.0000 </r>
       <r>    0.0278    1.0000 </r>
       <r>    0.1939    1.0000 </r>
       <r>    0.3987    1.0000 </r>
       <r>    0.4029    1.0000 </r>
       <r>    0.6979    1.0000 </r>
       <r>    1.1135    1.0000 </r>
       <r>   10.2224    0.0000 </r>
       <r>   10.7289    0.0000 </r>
       <r>   11.0250    0.0000 </r>
       <r>   11.2033    0.0000 </r>
       <r>   11.5422    0.0000 </r>
      </set>
      <set comment="kpoint 23">
       <r>  -17.5762    1.0000 </r>
       <r>  -17.1859    1.0000 </r>
       <r>  -16.6499    1.0000 </r>
       <r>  -16.0620    1.0000 </r>
       <r>  -15.9960    1.0000 </r>
       <r>  -15.9906    1.0000 </r>
       <r>   -6.8582    1.0000 </r>
       <r>   -5.8681    1.0000 </r>
       <r>   -5.1560    1.0000 </r>
       <r>   -3.8992    1.0000 </r>
       <r>   -3.7940    1.0000 </r>
       <r>   -3.6155    1.0000 </r>
       <r>   -1.9743    1.0000 </r>
       <r>   -1.7471    1.0000 </r>
       <r>   -1.2649    1.0000 </r>
       <r>   -0.9007    1.0000 </r>
       <r>   -0.6227    1.0000 </r>
       <r>   -0.4213    1.0000 </r>
       <r>    0.1500    1.0000 </r>
       <r>    0.2576    1.0000 </r>
       <r>    0.3291    1.0000 </r>
       <r>    0.5707    1.0000 </r>
       <r>    0.7159    1.0000 </r>
       <r>    0.9224    1.0000 </r>
       <r>   10.1749    0.0000 </r>
       <r>   10.6528    0.0000 </r>
       <r>   10.9656    0.0000 </r>
       <r>   11.3065    0.0000 </r>
       <r>   11.7210    0.0000 </r>
      </set>
      <set comment="kpoint 24">
       <r>  -17.5734    1.0000 </r>
       <r>  -17.1862    1.0000 </r>
       <r>  -16.6573    1.0000 </r>
       <r>  -16.0620    1.0000 </r>
       <r>  -15.9922    1.0000 </r>
       <r>  -15.9896    1.0000 </r>
       <r>   -6.8536    1.0000 </r>
       <r>   -5.8739    1.0000 </r>
       <r>   -5.1565    1.0000 </r>
       <r>   -3.8952    1.0000 </r>
       <r>   -3.7968    1.0000 </r>
       <r>   -3.6155    1.0000 </r>
       <r>   -1.9732    1.0000 </r>
       <r>   -1.7465    1.0000 </r>
       <r>   -1.2642    1.0000 </r>
       <r>   -0.8995    1.0000 </r>
       <r>   -0.6219    1.0000 </r>
       <r>   -0.4242    1.0000 </r>
       <r>    0.1478    1.0000 </r>
       <r>    0.2519    1.0000 </r>
       <r>    0.3270    1.0000 </r>
       <r>    0.5726    1.0000 </r>
       <r>    0.7176    1.0000 </r>
       <r>    0.9278    1.0000 </r>
       <r>   10.1811    0.0000 </r>
       <r>   10.6473    0.0000 </r>
       <r>   10.9585    0.0000 </r>
       <r>   11.3014    0.0000 </r>
       <r>   11.7249    0.0000 </r>
      </set>
     </set>
    </set>
   </array>
  </eigenvalues>
  <separator name="orbital magnetization" >
   <v name="MAGDIPOLOUT">      0.00000000      0.00000000      0.00000000</v>
  </separator>
  <dos>
   <i name="efermi">      1.78739404 </i>
   <total>
    <array>
     <dimension dim="1">gridpoints</dimension>
     <dimension dim="2">spin</dimension>
     <field>energy</field>
     <field>total</field>
     <field>integrated</field>
     <set>
      <set comment="spin 1">
       <r>   -19.6807     0.0000     0.0000 </r>
       <r>   -19.5701     0.0000     0.0000 </r>
       <r>   -19.4594     0.0000     0.0000 </r>
       <r>   -19.3488     0.0000     0.0000 </r>
       <r>   -19.2382     0.0000     0.0000 </r>
       <r>   -19.1275     0.0000     0.0000 </r>
       <r>   -19.0169     0.0000     0.0000 </r>
       <r>   -18.9062     0.0000     0.0000 </r>
       <r>   -18.7956     0.0000     0.0000 </r>
       <r>   -18.6849     0.0000     0.0000 </r>
       <r>   -18.5743     0.0000     0.0000 </r>
       <r>   -18.4637     0.0000     0.0000 </r>
       <r>   -18.3530     0.0015     0.0002 </r>
       <r>   -18.2424     0.0455     0.0052 </r>
       <r>   -18.1317     0.2561     0.0335 </r>
       <r>   -18.0211     0.9595     0.1397 </r>
       <r>   -17.9104     2.1809     0.3810 </r>
       <r>   -17.7998     2.2490     0.6298 </r>
       <r>   -17.6892     3.1589     0.9793 </r>
       <r>   -17.5785     6.7070     1.7214 </r>
       <r>   -17.4679     3.7381     2.1350 </r>
       <r>   -17.3572     0.7668     2.2198 </r>
       <r>   -17.2466     1.6726     2.4049 </r>
       <r>   -17.1359     7.3389     3.2169 </r>
       <r>   -17.0253     4.6912     3.7359 </r>
       <r>   -16.9147     0.5596     3.7979 </r>
       <r>   -16.8040     0.9850     3.9068 </r>
       <r>   -16.6934     2.7554     4.2117 </r>
       <r>   -16.5827     6.4549     4.9259 </r>
       <r>   -16.4721     3.7392     5.3396 </r>
       <r>   -16.3614     1.9984     5.5607 </r>
       <r>   -16.2508     2.2025     5.8044 </r>
       <r>   -16.1402     3.0324     6.1399 </r>
       <r>   -16.0295    16.1594     7.9278 </r>
       <r>   -15.9189    27.0590    10.9217 </r>
       <r>   -15.8082     9.2061    11.9403 </r>
       <r>   -15.6976     0.5353    11.9995 </r>
       <r>   -15.5869     0.0043    12.0000 </r>
       <r>   -15.4763     0.0000    12.0000 </r>
       <r>   -15.3657     0.0000    12.0000 </r>
       <r>   -15.2550     0.0000    12.0000 </r>
       <r>   -15.1444     0.0000    12.0000 </r>
       <r>   -15.0337     0.0000    12.0000 </r>
       <r>   -14.9231     0.0000    12.0000 </r>
       <r>   -14.8124     0.0000    12.0000 </r>
       <r>   -14.7018     0.0000    12.0000 </r>
       <r>   -14.5912     0.0000    12.0000 </r>
       <r>   -14.4805     0.0000    12.0000 </r>
       <r>   -14.3699     0.0000    12.0000 </r>
       <r>   -14.2592     0.0000    12.0000 </r>
       <r>   -14.1486     0.0000    12.0000 </r>
       <r>   -14.0380     0.0000    12.0000 </r>
       <r>   -13.9273     0.0000    12.0000 </r>
       <r>   -13.8167     0.0000    12.0000 </r>
       <r>   -13.7060     0.0000    12.0000 </r>
       <r>   -13.5954     0.0000    12.0000 </r>
       <r>   -13.4847     0.0000    12.0000 </r>
       <r>   -13.3741     0.0000    12.0000 </r>
       <r>   -13.2635     0.0000    12.0000 </r>
       <r>   -13.1528     0.0000    12.0000 </r>
       <r>   -13.0422     0.0000    12.0000 </r>
       <r>   -12.9315     0.0000    12.0000 </r>
       <r>   -12.8209     0.0000    12.0000 </r>
       <r>   -12.7102     0.0000    12.0000 </r>
       <r>   -12.5996     0.0000    12.0000 </r>
       <r>   -12.4890     0.0000    12.0000 </r>
       <r>   -12.3783     0.0000    12.0000 </r>
       <r>   -12.2677     0.0000    12.0000 </r>
       <r>   -12.1570     0.0000    12.0000 </r>
       <r>   -12.0464     0.0000    12.0000 </r>
       <r>   -11.9357     0.0000    12.0000 </r>
       <r>   -11.8251     0.0000    12.0000 </r>
       <r>   -11.7145     0.0000    12.0000 </r>
       <r>   -11.6038     0.0000    12.0000 </r>
       <r>   -11.4932     0.0000    12.0000 </r>
       <r>   -11.3825     0.0000    12.0000 </r>
       <r>   -11.2719     0.0000    12.0000 </r>
       <r>   -11.1612     0.0000    12.0000 </r>
       <r>   -11.0506     0.0000    12.0000 </r>
       <r>   -10.9400     0.0000    12.0000 </r>
       <r>   -10.8293     0.0000    12.0000 </r>
       <r>   -10.7187     0.0000    12.0000 </r>
       <r>   -10.6080     0.0000    12.0000 </r>
       <r>   -10.4974     0.0000    12.0000 </r>
       <r>   -10.3867     0.0000    12.0000 </r>
       <r>   -10.2761     0.0000    12.0000 </r>
       <r>   -10.1655     0.0000    12.0000 </r>
       <r>   -10.0548     0.0000    12.0000 </r>
       <r>    -9.9442     0.0000    12.0000 </r>
       <r>    -9.8335     0.0000    12.0000 </r>
       <r>    -9.7229     0.0000    12.0000 </r>
       <r>    -9.6122     0.0000    12.0000 </r>
       <r>    -9.5016     0.0000    12.0000 </r>
       <r>    -9.3910     0.0000    12.0000 </r>
       <r>    -9.2803     0.0000    12.0000 </r>
       <r>    -9.1697     0.0000    12.0000 </r>
       <r>    -9.0590     0.0000    12.0000 </r>
       <r>    -8.9484     0.0000    12.0000 </r>
       <r>    -8.8377     0.0000    12.0000 </r>
       <r>    -8.7271     0.0000    12.0000 </r>
       <r>    -8.6165     0.0000    12.0000 </r>
       <r>    -8.5058     0.0000    12.0000 </r>
       <r>    -8.3952     0.0000    12.0000 </r>
       <r>    -8.2845     0.0000    12.0000 </r>
       <r>    -8.1739     0.0002    12.0000 </r>
       <r>    -8.0633     0.0123    12.0014 </r>
       <r>    -7.9526     0.1129    12.0139 </r>
       <r>    -7.8420     0.1373    12.0291 </r>
       <r>    -7.7313     0.0957    12.0397 </r>
       <r>    -7.6207     0.4241    12.0866 </r>
       <r>    -7.5100     0.9825    12.1953 </r>
       <r>    -7.3994     1.2375    12.3322 </r>
       <r>    -7.2888     1.9653    12.5496 </r>
       <r>    -7.1781     1.0090    12.6613 </r>
       <r>    -7.0675     1.4304    12.8195 </r>
       <r>    -6.9568     4.6676    13.3360 </r>
       <r>    -6.8462     4.7020    13.8562 </r>
       <r>    -6.7355     1.4720    14.0191 </r>
       <r>    -6.6249     0.1955    14.0407 </r>
       <r>    -6.5143     0.7133    14.1196 </r>
       <r>    -6.4036     0.7803    14.2060 </r>
       <r>    -6.2930     0.1137    14.2186 </r>
       <r>    -6.1823     0.0277    14.2216 </r>
       <r>    -6.0717     0.5498    14.2825 </r>
       <r>    -5.9610     3.5027    14.6700 </r>
       <r>    -5.8504     6.9524    15.4392 </r>
       <r>    -5.7398     2.8985    15.7599 </r>
       <r>    -5.6291     0.1913    15.7811 </r>
       <r>    -5.5185     0.0186    15.7831 </r>
       <r>    -5.4078     0.3634    15.8233 </r>
       <r>    -5.2972     0.9981    15.9338 </r>
       <r>    -5.1865     0.9327    16.0370 </r>
       <r>    -5.0759     2.2312    16.2838 </r>
       <r>    -4.9653     3.9017    16.7155 </r>
       <r>    -4.8546     2.9560    17.0426 </r>
       <r>    -4.7440     1.8548    17.2478 </r>
       <r>    -4.6333     1.8209    17.4493 </r>
       <r>    -4.5227     1.9726    17.6675 </r>
       <r>    -4.4120     0.6079    17.7348 </r>
       <r>    -4.3014     0.7667    17.8196 </r>
       <r>    -4.1908     3.1679    18.1701 </r>
       <r>    -4.0801     8.9630    19.1618 </r>
       <r>    -3.9695     9.6145    20.2256 </r>
       <r>    -3.8588     6.6404    20.9603 </r>
       <r>    -3.7482     6.7602    21.7083 </r>
       <r>    -3.6375     5.6505    22.3335 </r>
       <r>    -3.5269     5.6953    22.9636 </r>
       <r>    -3.4163     5.0574    23.5232 </r>
       <r>    -3.3056     2.6305    23.8142 </r>
       <r>    -3.1950     1.4288    23.9723 </r>
       <r>    -3.0843     0.2450    23.9994 </r>
       <r>    -2.9737     0.0054    24.0000 </r>
       <r>    -2.8631     0.0000    24.0000 </r>
       <r>    -2.7524     0.0000    24.0000 </r>
       <r>    -2.6418     0.0000    24.0000 </r>
       <r>    -2.5311     0.0000    24.0000 </r>
       <r>    -2.4205     0.0000    24.0000 </r>
       <r>    -2.3098     0.0000    24.0000 </r>
       <r>    -2.1992     0.0017    24.0002 </r>
       <r>    -2.0886     0.1755    24.0196 </r>
       <r>    -1.9779     2.7311    24.3218 </r>
       <r>    -1.8673     8.0191    25.2090 </r>
       <r>    -1.7566     8.1051    26.1058 </r>
       <r>    -1.6460     6.7904    26.8571 </r>
       <r>    -1.5353     5.3200    27.4457 </r>
       <r>    -1.4247     6.4396    28.1582 </r>
       <r>    -1.3141     8.4760    29.0960 </r>
       <r>    -1.2034     5.8857    29.7472 </r>
       <r>    -1.0928     3.8703    30.1754 </r>
       <r>    -0.9821     4.9188    30.7197 </r>
       <r>    -0.8715     8.4219    31.6515 </r>
       <r>    -0.7608     6.8998    32.4149 </r>
       <r>    -0.6502     7.4008    33.2338 </r>
       <r>    -0.5396     6.2781    33.9284 </r>
       <r>    -0.4289     6.2859    34.6239 </r>
       <r>    -0.3183     5.9406    35.2812 </r>
       <r>    -0.2076     8.1369    36.1814 </r>
       <r>    -0.0970     9.8174    37.2677 </r>
       <r>     0.0137     8.1589    38.1704 </r>
       <r>     0.1243     8.9630    39.1621 </r>
       <r>     0.2349     9.5111    40.2144 </r>
       <r>     0.3456    10.7074    41.3991 </r>
       <r>     0.4562     8.6424    42.3553 </r>
       <r>     0.5669     5.7859    42.9955 </r>
       <r>     0.6775     6.2733    43.6896 </r>
       <r>     0.7882     5.2775    44.2735 </r>
       <r>     0.8988     6.6823    45.0129 </r>
       <r>     1.0094     6.7016    45.7543 </r>
       <r>     1.1201     7.8803    46.6262 </r>
       <r>     1.2307     8.2347    47.5374 </r>
       <r>     1.3414     3.6596    47.9423 </r>
       <r>     1.4520     0.5099    47.9987 </r>
       <r>     1.5627     0.0119    48.0000 </r>
       <r>     1.6733     0.0000    48.0000 </r>
       <r>     1.7839     0.0000    48.0000 </r>
       <r>     1.8946     0.0000    48.0000 </r>
       <r>     2.0052     0.0000    48.0000 </r>
       <r>     2.1159     0.0000    48.0000 </r>
       <r>     2.2265     0.0000    48.0000 </r>
       <r>     2.3371     0.0000    48.0000 </r>
       <r>     2.4478     0.0000    48.0000 </r>
       <r>     2.5584     0.0000    48.0000 </r>
       <r>     2.6691     0.0000    48.0000 </r>
       <r>     2.7797     0.0000    48.0000 </r>
       <r>     2.8904     0.0000    48.0000 </r>
       <r>     3.0010     0.0000    48.0000 </r>
       <r>     3.1116     0.0000    48.0000 </r>
       <r>     3.2223     0.0000    48.0000 </r>
       <r>     3.3329     0.0000    48.0000 </r>
       <r>     3.4436     0.0000    48.0000 </r>
       <r>     3.5542     0.0000    48.0000 </r>
       <r>     3.6649     0.0000    48.0000 </r>
       <r>     3.7755     0.0000    48.0000 </r>
       <r>     3.8861     0.0000    48.0000 </r>
       <r>     3.9968     0.0000    48.0000 </r>
       <r>     4.1074     0.0000    48.0000 </r>
       <r>     4.2181     0.0000    48.0000 </r>
       <r>     4.3287     0.0000    48.0000 </r>
       <r>     4.4394     0.0000    48.0000 </r>
       <r>     4.5500     0.0000    48.0000 </r>
       <r>     4.6606     0.0000    48.0000 </r>
       <r>     4.7713     0.0000    48.0000 </r>
       <r>     4.8819     0.0000    48.0000 </r>
       <r>     4.9926     0.0000    48.0000 </r>
       <r>     5.1032     0.0000    48.0000 </r>
       <r>     5.2139     0.0000    48.0000 </r>
       <r>     5.3245     0.0000    48.0000 </r>
       <r>     5.4351     0.0000    48.0000 </r>
       <r>     5.5458     0.0000    48.0000 </r>
       <r>     5.6564     0.0000    48.0000 </r>
       <r>     5.7671     0.0000    48.0000 </r>
       <r>     5.8777     0.0000    48.0000 </r>
       <r>     5.9884     0.0000    48.0000 </r>
       <r>     6.0990     0.0000    48.0000 </r>
       <r>     6.2096     0.0000    48.0000 </r>
       <r>     6.3203     0.0000    48.0000 </r>
       <r>     6.4309     0.0000    48.0000 </r>
       <r>     6.5416     0.0000    48.0000 </r>
       <r>     6.6522     0.0000    48.0000 </r>
       <r>     6.7629     0.0000    48.0000 </r>
       <r>     6.8735     0.0000    48.0000 </r>
       <r>     6.9841     0.0000    48.0000 </r>
       <r>     7.0948     0.0002    48.0000 </r>
       <r>     7.2054     0.0132    48.0015 </r>
       <r>     7.3161     0.1160    48.0143 </r>
       <r>     7.4267     0.1326    48.0290 </r>
       <r>     7.5373     0.0200    48.0312 </r>
       <r>     7.6480     0.0004    48.0313 </r>
       <r>     7.7586     0.0034    48.0316 </r>
       <r>     7.8693     0.0943    48.0421 </r>
       <r>     7.9799     0.3167    48.0771 </r>
       <r>     8.0906     0.1796    48.0970 </r>
       <r>     8.2012     0.5242    48.1550 </r>
       <r>     8.3118     0.9170    48.2564 </r>
       <r>     8.4225     0.2185    48.2806 </r>
       <r>     8.5331     0.0620    48.2875 </r>
       <r>     8.6438     0.8571    48.3823 </r>
       <r>     8.7544     1.8502    48.5870 </r>
       <r>     8.8651     0.5991    48.6533 </r>
       <r>     8.9757     0.0266    48.6562 </r>
       <r>     9.0863     0.0006    48.6563 </r>
       <r>     9.1970     0.0322    48.6599 </r>
       <r>     9.3076     0.2615    48.6888 </r>
       <r>     9.4183     0.5875    48.7538 </r>
       <r>     9.5289     1.0837    48.8737 </r>
       <r>     9.6396     1.4870    49.0382 </r>
       <r>     9.7502     3.1038    49.3817 </r>
       <r>     9.8608     2.9411    49.7071 </r>
       <r>     9.9715     1.7059    49.8958 </r>
       <r>    10.0821     0.5335    49.9548 </r>
       <r>    10.1928     1.1126    50.0779 </r>
       <r>    10.3034     1.3636    50.2288 </r>
       <r>    10.4141     2.1140    50.4627 </r>
       <r>    10.5247     3.1273    50.8087 </r>
       <r>    10.6353     5.2250    51.3868 </r>
       <r>    10.7460     9.0718    52.3906 </r>
       <r>    10.8566     6.0781    53.0631 </r>
       <r>    10.9673     6.6488    53.7987 </r>
       <r>    11.0779     7.2296    54.5986 </r>
       <r>    11.1886     2.9514    54.9251 </r>
       <r>    11.2992     3.7420    55.3392 </r>
       <r>    11.4098     5.7039    55.9703 </r>
       <r>    11.5205     6.3281    56.6704 </r>
       <r>    11.6311     5.2671    57.2532 </r>
       <r>    11.7418     3.3368    57.6224 </r>
       <r>    11.8524     2.0992    57.8546 </r>
       <r>    11.9631     0.7074    57.9329 </r>
       <r>    12.0737     0.4832    57.9864 </r>
       <r>    12.1843     0.1196    57.9996 </r>
       <r>    12.2950     0.0038    58.0000 </r>
       <r>    12.4056     0.0000    58.0000 </r>
       <r>    12.5163     0.0000    58.0000 </r>
       <r>    12.6269     0.0000    58.0000 </r>
       <r>    12.7376     0.0000    58.0000 </r>
       <r>    12.8482     0.0000    58.0000 </r>
       <r>    12.9588     0.0000    58.0000 </r>
       <r>    13.0695     0.0000    58.0000 </r>
       <r>    13.1801     0.0000    58.0000 </r>
       <r>    13.2908     0.0000    58.0000 </r>
       <r>    13.4014     0.0000    58.0000 </r>
       <r>    13.5120     0.0000    58.0000 </r>
      </set>
     </set>
    </array>
   </total>
  </dos>
 </calculation>
 <structure name="finalpos" >
  <crystal>
   <varray name="basis" >
    <v>       4.87342988       0.00000000       0.00000000 </v>
    <v>      -2.43671494       4.22051408       0.00000000 </v>
    <v>       0.00000000       0.00000000       5.37418982 </v>
   </varray>
   <i name="volume">    110.53837516 </i>
   <varray name="rec_basis" >
    <v>       0.20519429       0.11846898      -0.00000000 </v>
    <v>       0.00000000       0.23693796       0.00000000 </v>
    <v>       0.00000000      -0.00000000       0.18607456 </v>
   </varray>
  </crystal>
  <varray name="positions" >
   <v>       0.46468409       0.00000000       0.66666667 </v>
   <v>       0.00004088       0.46470283       0.33324318 </v>
   <v>       0.53533806       0.53529717       0.00009015 </v>
   <v>       0.13565605       0.72418087       0.55431412 </v>
   <v>       0.27601079       0.41151462       0.22085911 </v>
   <v>       0.58847372       0.86469627       0.88739308 </v>
   <v>       0.41147518       0.27581913       0.77901921 </v>
   <v>       0.86449617       0.58848538       0.11247422 </v>
   <v>       0.72377745       0.13530373       0.44594025 </v>
  </varray>
 </structure>
</modeling>
