<?xml version="1.0" encoding="ISO-8859-1"?>
<modeling>
 <generator>
  <i name="program" type="string">vasp </i>
  <i name="version" type="string">6.4.1  </i>
  <i name="subversion" type="string">05Apr23 (build Sep  6 2023 20:49:31) complex                          parallel </i>
  <i name="platform" type="string">LinuxNV </i>
  <i name="date" type="string">2023 10 19 </i>
  <i name="time" type="string">14:05:34 </i>
 </generator>
 <incar>
  <i type="string" name="PREC">Accurate</i>
  <i type="string" name="ALGO">Fast</i>
  <i name="EDIFF">      0.00000001</i>
  <i name="ENCUT">    500.00000000</i>
  <i type="int" name="ISMEAR">     0</i>
  <i name="SIGMA">      0.10000000</i>
  <i type="logical" name="LEPSILON"> T  </i>
 </incar>
 <primitive_cell>
  <structure name="primitive_cell" >
   <crystal>
    <varray name="basis" >
     <v>       4.87342988       0.00000000       0.00000000 </v>
     <v>      -2.43671494       4.22051408       0.00000000 </v>
     <v>       0.00000000       0.00000000       5.37418982 </v>
    </varray>
    <i name="volume">    110.53837516 </i>
    <varray name="rec_basis" >
     <v>       0.20519429       0.11846898      -0.00000000 </v>
     <v>       0.00000000       0.23693796       0.00000000 </v>
     <v>       0.00000000      -0.00000000       0.18607456 </v>
    </varray>
   </crystal>
   <varray name="positions" >
    <v>       0.46465457       0.99994324       0.66658430 </v>
    <v>       0.99997162       0.46467587       0.33337452 </v>
    <v>       0.53533835       0.53530997       0.00004118 </v>
    <v>       0.13531007       0.72409692       0.55415995 </v>
    <v>       0.27608725       0.41160306       0.22094055 </v>
    <v>       0.58830014       0.86436227       0.88746582 </v>
    <v>       0.41179756       0.27613189       0.77911574 </v>
    <v>       0.86454007       0.58859235       0.11256300 </v>
    <v>       0.72402715       0.13533801       0.44575494 </v>
   </varray>
  </structure>
  <varray name="primitive_index" >
   <v type="int" >        1 </v>
   <v type="int" >        2 </v>
   <v type="int" >        3 </v>
   <v type="int" >        4 </v>
   <v type="int" >        5 </v>
   <v type="int" >        6 </v>
   <v type="int" >        7 </v>
   <v type="int" >        8 </v>
   <v type="int" >        9 </v>
  </varray>
 </primitive_cell>
 <kpoints>
  <generation param="Gamma">
   <v type="int" name="divisions">       4        4        4 </v>
   <v name="usershift">      0.00000000       0.00000000       0.00000000 </v>
   <v name="genvec1">      0.25000000       0.00000000       0.00000000 </v>
   <v name="genvec2">      0.00000000       0.25000000       0.00000000 </v>
   <v name="genvec3">      0.00000000       0.00000000       0.25000000 </v>
   <v name="shift">      0.00000000       0.00000000       0.00000000 </v>
  </generation>
  <varray name="kpointlist" >
   <v>       0.00000000       0.00000000       0.00000000 </v>
   <v>       0.25000000       0.00000000       0.00000000 </v>
   <v>       0.00000000       0.25000000       0.00000000 </v>
   <v>      -0.25000000       0.25000000       0.00000000 </v>
   <v>       0.50000000       0.00000000       0.00000000 </v>
   <v>       0.00000000       0.50000000       0.00000000 </v>
   <v>       0.50000000       0.50000000       0.00000000 </v>
   <v>       0.25000000       0.25000000       0.00000000 </v>
   <v>      -0.25000000       0.50000000       0.00000000 </v>
   <v>       0.50000000       0.25000000       0.00000000 </v>
   <v>       0.00000000       0.00000000       0.25000000 </v>
   <v>       0.25000000       0.00000000       0.25000000 </v>
   <v>       0.00000000       0.25000000       0.25000000 </v>
   <v>      -0.25000000       0.25000000       0.25000000 </v>
   <v>      -0.25000000       0.00000000       0.25000000 </v>
   <v>       0.00000000      -0.25000000       0.25000000 </v>
   <v>       0.25000000      -0.25000000       0.25000000 </v>
   <v>       0.50000000       0.00000000       0.25000000 </v>
   <v>       0.00000000       0.50000000       0.25000000 </v>
   <v>       0.50000000       0.50000000       0.25000000 </v>
   <v>       0.25000000       0.25000000       0.25000000 </v>
   <v>      -0.25000000       0.50000000       0.25000000 </v>
   <v>       0.50000000       0.25000000       0.25000000 </v>
   <v>      -0.25000000      -0.25000000       0.25000000 </v>
   <v>       0.25000000       0.50000000       0.25000000 </v>
   <v>       0.50000000      -0.25000000       0.25000000 </v>
   <v>       0.00000000       0.00000000       0.50000000 </v>
   <v>       0.25000000       0.00000000       0.50000000 </v>
   <v>       0.00000000       0.25000000       0.50000000 </v>
   <v>      -0.25000000       0.25000000       0.50000000 </v>
   <v>       0.50000000       0.00000000       0.50000000 </v>
   <v>       0.00000000       0.50000000       0.50000000 </v>
   <v>       0.50000000       0.50000000       0.50000000 </v>
   <v>       0.25000000       0.25000000       0.50000000 </v>
   <v>      -0.25000000       0.50000000       0.50000000 </v>
   <v>       0.50000000       0.25000000       0.50000000 </v>
  </varray>
  <varray name="weights" >
   <v>       0.01562500 </v>
   <v>       0.03125000 </v>
   <v>       0.03125000 </v>
   <v>       0.03125000 </v>
   <v>       0.01562500 </v>
   <v>       0.01562500 </v>
   <v>       0.01562500 </v>
   <v>       0.03125000 </v>
   <v>       0.03125000 </v>
   <v>       0.03125000 </v>
   <v>       0.03125000 </v>
   <v>       0.03125000 </v>
   <v>       0.03125000 </v>
   <v>       0.03125000 </v>
   <v>       0.03125000 </v>
   <v>       0.03125000 </v>
   <v>       0.03125000 </v>
   <v>       0.03125000 </v>
   <v>       0.03125000 </v>
   <v>       0.03125000 </v>
   <v>       0.03125000 </v>
   <v>       0.03125000 </v>
   <v>       0.03125000 </v>
   <v>       0.03125000 </v>
   <v>       0.03125000 </v>
   <v>       0.03125000 </v>
   <v>       0.01562500 </v>
   <v>       0.03125000 </v>
   <v>       0.03125000 </v>
   <v>       0.03125000 </v>
   <v>       0.01562500 </v>
   <v>       0.01562500 </v>
   <v>       0.01562500 </v>
   <v>       0.03125000 </v>
   <v>       0.03125000 </v>
   <v>       0.03125000 </v>
  </varray>
 </kpoints>
 <parameters>
  <separator name="general" >
   <i type="string" name="SYSTEM">unknown system</i>
   <i type="logical" name="LCOMPAT"> F  </i>
  </separator>
  <separator name="electronic" >
   <i type="string" name="PREC">accura</i>
   <i name="ENMAX">    500.00000000</i>
   <i name="ENAUG">    605.39200000</i>
   <i name="EDIFF">      0.00000001</i>
   <i type="int" name="IALGO">    68</i>
   <i type="int" name="IWAVPR">    10</i>
   <i type="int" name="NBANDS">    29</i>
   <i type="int" name="NBANDSLOW">    -1</i>
   <i type="int" name="NBANDSHIGH">    -1</i>
   <i name="NELECT">     48.00000000</i>
   <i type="int" name="TURBO">     0</i>
   <i type="int" name="IRESTART">     0</i>
   <i type="int" name="NREBOOT">     0</i>
   <i type="int" name="NMIN">     0</i>
   <i name="EREF">      0.00000000</i>
   <separator name="electronic smearing" >
    <i type="int" name="ISMEAR">     0</i>
    <i name="SIGMA">      0.10000000</i>
    <i name="KSPACING">      0.50000000</i>
    <i type="logical" name="KGAMMA"> T  </i>
    <i type="logical" name="KBLOWUP"> T  </i>
   </separator>
   <separator name="electronic projectors" >
    <i type="logical" name="LREAL"> F  </i>
    <v name="ROPT">      0.00000000      0.00000000</v>
    <i type="int" name="LMAXPAW">  -100</i>
    <i type="int" name="LMAXMIX">     2</i>
    <i type="logical" name="NLSPLINE"> F  </i>
   </separator>
   <separator name="electronic startup" >
    <i type="int" name="ISTART">     0</i>
    <i type="int" name="ICHARG">     2</i>
    <i type="int" name="INIWAV">     1</i>
   </separator>
   <separator name="electronic spin" >
    <i type="int" name="ISPIN">     1</i>
    <i type="logical" name="LNONCOLLINEAR"> F  </i>
    <v name="MAGMOM">      1.00000000      1.00000000      1.00000000      1.00000000      1.00000000      1.00000000      1.00000000      1.00000000      1.00000000</v>
    <i name="NUPDOWN">     -1.00000000</i>
    <i type="logical" name="LSORBIT"> F  </i>
    <v name="SAXIS">      0.00000000      0.00000000      1.00000000</v>
    <i type="logical" name="LSPIRAL"> F  </i>
    <v name="QSPIRAL">      0.00000000      0.00000000      0.00000000</v>
    <i type="logical" name="LZEROZ"> F  </i>
   </separator>
   <separator name="electronic exchange-correlation" >
    <i type="logical" name="LASPH"> F  </i>
    <i type="logical" name="LMETAGGA"> F  </i>
   </separator>
   <separator name="electronic convergence" >
    <i type="int" name="NELM">    60</i>
    <i type="int" name="NELMDL">    -5</i>
    <i type="int" name="NELMIN">     2</i>
    <i name="ENINI">    500.00000000</i>
    <separator name="electronic convergence detail" >
     <i type="logical" name="LDIAG"> T  </i>
     <i type="logical" name="LSUBROT"> F  </i>
     <i name="WEIMIN">      0.00000000</i>
     <i name="EBREAK">      0.00000000</i>
     <i name="DEPER">      0.30000000</i>
     <i type="int" name="NRMM">     4</i>
     <i name="TIME">      0.40000000</i>
    </separator>
   </separator>
   <separator name="electronic mixer" >
    <i name="AMIX">      0.40000000</i>
    <i name="BMIX">      1.00000000</i>
    <i name="AMIN">      0.10000000</i>
    <i name="AMIX_MAG">      1.60000000</i>
    <i name="BMIX_MAG">      1.00000000</i>
    <separator name="electronic mixer details" >
     <i type="int" name="IMIX">     4</i>
     <i type="logical" name="MIXFIRST"> F  </i>
     <i type="int" name="MAXMIX">   -45</i>
     <i name="WC">    100.00000000</i>
     <i type="int" name="INIMIX">     1</i>
     <i type="int" name="MIXPRE">     1</i>
     <i type="int" name="MREMOVE">     5</i>
    </separator>
   </separator>
   <separator name="electronic dipolcorrection" >
    <i type="logical" name="LDIPOL"> F  </i>
    <i type="logical" name="LMONO"> F  </i>
    <i type="int" name="IDIPOL">     0</i>
    <i name="EPSILON">      1.00000000</i>
    <v name="DIPOL">   -100.00000000   -100.00000000   -100.00000000</v>
    <i name="EFIELD">      0.00000000</i>
   </separator>
  </separator>
  <separator name="grids" >
   <i type="int" name="NGX">    36</i>
   <i type="int" name="NGY">    36</i>
   <i type="int" name="NGZ">    40</i>
   <i type="int" name="NGXF">    72</i>
   <i type="int" name="NGYF">    72</i>
   <i type="int" name="NGZF">    80</i>
   <i type="logical" name="ADDGRID"> F  </i>
  </separator>
  <separator name="ionic" >
   <i type="int" name="NSW">     0</i>
   <i type="int" name="IBRION">    -1</i>
   <i type="int" name="MDALGO">     0</i>
   <i type="int" name="ISIF">     2</i>
   <i name="PSTRESS">      0.00000000</i>
   <i name="EDIFFG">      0.00000010</i>
   <i type="int" name="NFREE">     0</i>
   <i name="POTIM">      0.50000000</i>
   <i name="SMASS">     -3.00000000</i>
   <i name="SCALEE">      1.00000000</i>
  </separator>
  <separator name="ionic md" >
   <i name="TEBEG">      0.00010000</i>
   <i name="TEEND">      0.00010000</i>
   <i type="int" name="NBLOCK">     1</i>
   <i type="int" name="KBLOCK">     1</i>
   <i type="int" name="NPACO">   256</i>
   <i name="APACO">     10.00000000</i>
  </separator>
  <separator name="symmetry" >
   <i type="int" name="ISYM">     2</i>
   <i name="SYMPREC">      0.00001000</i>
  </separator>
  <separator name="dos" >
   <i type="int" name="LORBIT">     0</i>
   <v name="RWIGS">     -1.00000000     -1.00000000</v>
   <i type="int" name="NEDOS">   301</i>
   <i name="EMIN">     10.00000000</i>
   <i name="EMAX">    -10.00000000</i>
   <i name="EFERMI">      0.00000000</i>
  </separator>
  <separator name="writing" >
   <i type="int" name="NWRITE">     2</i>
   <i type="logical" name="LWAVE"> T  </i>
   <i type="logical" name="LDOWNSAMPLE"> F  </i>
   <i type="logical" name="LCHARG"> T  </i>
   <i type="logical" name="LPARD"> F  </i>
   <i type="logical" name="LVTOT"> F  </i>
   <i type="logical" name="LVHAR"> F  </i>
   <i type="logical" name="LELF"> F  </i>
   <i type="logical" name="LOPTICS"> F  </i>
   <v name="STM">      0.00000000      0.00000000      0.00000000      0.00000000      0.00000000      0.00000000      0.00000000</v>
  </separator>
  <separator name="performance" >
   <i type="int" name="NPAR">     1</i>
   <i type="int" name="NSIM">     4</i>
   <i type="int" name="NBLK">    -1</i>
   <i type="logical" name="LPLANE"> T  </i>
   <i type="logical" name="LSCALAPACK"> T  </i>
   <i type="logical" name="LSCAAWARE"> F  </i>
   <i type="logical" name="LSCALU"> F  </i>
   <i type="logical" name="LASYNC"> F  </i>
   <i type="logical" name="LORBITALREAL"> F  </i>
  </separator>
  <separator name="miscellaneous" >
   <i type="int" name="IDIOT">     3</i>
   <i type="int" name="PHON_NSTRUCT">    -1</i>
   <i type="logical" name="LMUSIC"> F  </i>
   <v name="POMASS">     28.08500000     16.00000000</v>
   <v name="DARWINR">      0.00000000      0.00000000</v>
   <v name="DARWINV">      1.00000000      1.00000000</v>
   <i type="logical" name="LCORR"> T  </i>
  </separator>
  <i type="logical" name="GGA_COMPAT"> T  </i>
  <i type="logical" name="LBERRY"> F  </i>
  <i type="int" name="ICORELEVEL">     0</i>
  <i type="logical" name="LDAU"> F  </i>
  <i type="int" name="I_CONSTRAINED_M">     0</i>
  <separator name="electronic exchange-correlation" >
   <i type="string" name="GGA">--</i>
   <i type="int" name="VOSKOWN">     0</i>
   <i type="logical" name="LHFCALC"> F  </i>
   <i type="string" name="PRECFOCK"></i>
   <i type="logical" name="LSYMGRAD"> F  </i>
   <i type="logical" name="LHFONE"> F  </i>
   <i type="logical" name="LRHFCALC"> F  </i>
   <i type="logical" name="LTHOMAS"> F  </i>
   <i type="logical" name="LMODELHF"> F  </i>
   <i type="logical" name="LFOCKACE"> F  </i>
   <i name="ENCUT4O">     -1.00000000</i>
   <i type="int" name="EXXOEP">     0</i>
   <i type="int" name="FOURORBIT">     0</i>
   <i name="AEXX">      0.00000000</i>
   <i name="HFALPHA">      0.00000000</i>
   <i name="MCALPHA">      0.00000000</i>
   <i name="ALDAX">      1.00000000</i>
   <i name="AGGAX">      1.00000000</i>
   <i name="ALDAC">      1.00000000</i>
   <i name="AGGAC">      1.00000000</i>
   <i type="int" name="NKREDX">     1</i>
   <i type="int" name="NKREDY">     1</i>
   <i type="int" name="NKREDZ">     1</i>
   <i type="logical" name="SHIFTRED"> F  </i>
   <i type="logical" name="ODDONLY"> F  </i>
   <i type="logical" name="EVENONLY"> F  </i>
   <i type="int" name="LMAXFOCK">     0</i>
   <i type="int" name="NMAXFOCKAE">     0</i>
   <i type="logical" name="LFOCKAEDFT"> F  </i>
   <i name="HFSCREEN">      0.00000000</i>
   <i name="HFSCREENC">      0.00000000</i>
   <i type="int" name="NBANDSGWLOW">     0</i>
  </separator>
  <separator name="vdW DFT" >
   <i type="logical" name="LUSE_VDW"> F  </i>
   <i type="int" name="IVDW_NL">     1</i>
   <i type="logical" name="LSPIN_VDW"> F  </i>
   <i name="Zab_VDW">     -0.84910000</i>
   <i name="PARAM1">      0.12340000</i>
   <i name="PARAM2">      1.00000000</i>
   <i name="PARAM3">      0.00000000</i>
  </separator>
  <separator name="model GW" >
   <i type="int" name="MODEL_GW">     0</i>
   <i name="MODEL_EPS0">      7.36922501</i>
   <i name="MODEL_ALPHA">      1.00000000</i>
  </separator>
  <separator name="linear response parameters" >
   <i type="logical" name="LEPSILON"> T  </i>
   <i type="logical" name="LRPA"> F  </i>
   <i type="logical" name="LNABLA"> F  </i>
   <i type="logical" name="LVEL"> F  </i>
   <i name="CSHIFT">      0.10000000</i>
   <i name="OMEGAMAX">     -1.00000000</i>
   <i name="DEG_THRESHOLD">      0.00200000</i>
   <i name="RTIME">     -0.10000000</i>
   <i name="WPLASMAI">      0.00000000</i>
   <v name="DFIELD">      0.00000000      0.00000000      0.00000000</v>
   <v name="WPLASMA">      0.00000000      0.00000000      0.00000000      0.00000000      0.00000000      0.00000000      0.00000000      0.00000000      0.00000000</v>
  </separator>
  <separator name="orbital magnetization" >
   <i type="logical" name="NUCIND"> F  </i>
   <v name="MAGPOS">      0.00000000      0.00000000      0.00000000</v>
   <i type="logical" name="LNICSALL"> T  </i>
   <i type="logical" name="ORBITALMAG"> F  </i>
   <i type="logical" name="LMAGBLOCH"> F  </i>
   <i type="logical" name="LCHIMAG"> F  </i>
   <i type="logical" name="LGAUGE"> T  </i>
   <i type="int" name="MAGATOM">     0</i>
   <v name="MAGDIPOL">      0.00000000      0.00000000      0.00000000</v>
   <v name="AVECCONST">      0.00000000      0.00000000      0.00000000</v>
  </separator>
  <separator name="response functions" >
   <i type="logical" name="LALL_IN_ONE"> F  </i>
   <i type="int" name="IALL_IN_ONE">    -1</i>
   <i type="int" name="NBANDS_WAVE">    -1</i>
   <i type="logical" name="LFINITE_TEMPERATURE"> F  </i>
   <i type="logical" name="LADDER"> F  </i>
   <i type="logical" name="LRPAFORCE"> F  </i>
   <i type="logical" name="LFXC"> F  </i>
   <i type="logical" name="LHARTREE"> T  </i>
   <i type="int" name="IBSE">     0</i>
   <v type="int" name="KPOINT">    -1     0     0     0</v>
   <i type="logical" name="LTCTC"> F  </i>
   <i type="logical" name="LTCTE"> F  </i>
   <i type="logical" name="LTETE"> F  </i>
   <i type="logical" name="LTRIPLET"> F  </i>
   <i type="logical" name="LFXCEPS"> F  </i>
   <i type="logical" name="LFXHEG"> F  </i>
   <i type="int" name="NATURALO">     2</i>
   <i type="logical" name="LHOLEGF"> F  </i>
   <i type="logical" name="L2ORDER"> F  </i>
   <i type="logical" name="LDMP1"> F  </i>
   <i type="logical" name="LMP2LT"> F  </i>
   <i type="logical" name="LSMP2LT"> F  </i>
   <i type="logical" name="LGWLF"> F  </i>
   <i name="ENCUTGW">     -1.60000002</i>
   <i name="ENCUTGWSOFT">     -1.60000002</i>
   <i name="ENCUTLF">     -1.00000000</i>
   <i type="logical" name="LESF_SPLINES"> F  </i>
   <i type="int" name="LMAXMP2">    -1</i>
   <i name="SCISSOR">      0.00000000</i>
   <i type="int" name="NOMEGA">     0</i>
   <i type="int" name="NOMEGAR">     0</i>
   <i type="int" name="NBANDSGW">    -1</i>
   <i type="int" name="NBANDSO">    -1</i>
   <i type="int" name="NBANDSV">    -1</i>
   <i type="int" name="NELMGW">     1</i>
   <i type="int" name="NELMHF">     1</i>
   <i type="int" name="DIM">     3</i>
   <i type="int" name="IESPILON">     4</i>
   <i type="int" name="ANTIRES">     0</i>
   <i name="OMEGAMAX">    -30.00000000</i>
   <i name="OMEGAMIN">    -30.00000000</i>
   <i name="OMEGATL">   -200.00000000</i>
   <i type="int" name="OMEGAGRID">     0</i>
   <i name="CSHIFT">     -0.10000000</i>
   <i type="logical" name="LSELFENERGY"> F  </i>
   <i type="logical" name="LSPECTRAL"> F  </i>
   <i type="logical" name="LSPECTRALGW"> F  </i>
   <i type="logical" name="LSINGLES"> F  </i>
   <i type="logical" name="LFERMIGW"> F  </i>
   <i type="logical" name="ODDONLYGW"> F  </i>
   <i type="logical" name="EVENONLYGW"> F  </i>
   <i type="int" name="NKREDLFX">     1</i>
   <i type="int" name="NKREDLFY">     1</i>
   <i type="int" name="NKREDLFZ">     1</i>
   <i type="int" name="MAXMEM">  2800</i>
   <i type="int" name="TELESCOPE">     0</i>
   <i type="int" name="NTAUPAR">    -1</i>
   <i type="int" name="NOMEGAPAR">    -1</i>
   <i name="DAMP_NEWTON">      0.80000001</i>
   <i name="LAMBDA">      1.00000000</i>
  </separator>
  <separator name="External order field" >
   <i name="OFIELD_KAPPA">      0.00000000</i>
   <v name="OFIELD_K">      0.00000000      0.00000000      0.00000000</v>
   <i name="OFIELD_Q6_NEAR">      0.00000000</i>
   <i name="OFIELD_Q6_FAR">      0.00000000</i>
   <i name="OFIELD_A">      0.00000000</i>
  </separator>
  <separator name="optional k-points parameters" >
   <i type="int" name="KPOINTS_OPT_MODE">     1</i>
   <i type="logical" name="LKPOINTS_OPT"> F  </i>
  </separator>
 </parameters>
 <atominfo>
  <atoms>       9 </atoms>
  <types>       2 </types>
  <array name="atoms" >
   <dimension dim="1">ion</dimension>
   <field type="string">element</field>
   <field type="int">atomtype</field>
   <set>
    <rc><c>Si</c><c>   1</c></rc>
    <rc><c>Si</c><c>   1</c></rc>
    <rc><c>Si</c><c>   1</c></rc>
    <rc><c>O </c><c>   2</c></rc>
    <rc><c>O </c><c>   2</c></rc>
    <rc><c>O </c><c>   2</c></rc>
    <rc><c>O </c><c>   2</c></rc>
    <rc><c>O </c><c>   2</c></rc>
    <rc><c>O </c><c>   2</c></rc>
   </set>
  </array>
  <array name="atomtypes" >
   <dimension dim="1">type</dimension>
   <field type="int">atomspertype</field>
   <field type="string">element</field>
   <field>mass</field>
   <field>valence</field>
   <field type="string">pseudopotential</field>
   <set>
    <rc><c>   3</c><c>Si</c><c>     28.08500000</c><c>      4.00000000</c><c>  PAW_PBE Si 05Jan2001                  </c></rc>
    <rc><c>   6</c><c>O </c><c>     16.00000000</c><c>      6.00000000</c><c>  PAW_PBE O 08Apr2002                   </c></rc>
   </set>
  </array>
 </atominfo>
 <structure name="initialpos" >
  <crystal>
   <varray name="basis" >
    <v>       4.87342988       0.00000000       0.00000000 </v>
    <v>      -2.43671494       4.22051408       0.00000000 </v>
    <v>       0.00000000       0.00000000       5.37418982 </v>
   </varray>
   <i name="volume">    110.53837516 </i>
   <varray name="rec_basis" >
    <v>       0.20519429       0.11846898      -0.00000000 </v>
    <v>       0.00000000       0.23693796       0.00000000 </v>
    <v>       0.00000000      -0.00000000       0.18607456 </v>
   </varray>
  </crystal>
  <varray name="positions" >
   <v>       0.46465457       0.99994324       0.66658430 </v>
   <v>       0.99997162       0.46467587       0.33337452 </v>
   <v>       0.53533835       0.53530997       0.00004118 </v>
   <v>       0.13531007       0.72409692       0.55415995 </v>
   <v>       0.27608725       0.41160306       0.22094055 </v>
   <v>       0.58830014       0.86436227       0.88746582 </v>
   <v>       0.41179756       0.27613189       0.77911574 </v>
   <v>       0.86454007       0.58859235       0.11256300 </v>
   <v>       0.72402715       0.13533801       0.44575494 </v>
  </varray>
 </structure>
 <calculation>
  <scstep>
   <time name="dav">    1.13    1.14</time>
   <time name="total">    1.17    1.16</time>
   <energy>
    <i name="alphaZ">     71.30271804 </i>
    <i name="ewald">  -1930.19441682 </i>
    <i name="hartreedc">   -909.39694463 </i>
    <i name="XCdc">    141.70969154 </i>
    <i name="pawpsdc">   2343.66826019 </i>
    <i name="pawaedc">  -2301.68043871 </i>
    <i name="eentropy">     -0.00961709 </i>
    <i name="bandstr">    -14.49728224 </i>
    <i name="atom">   2903.33737771 </i>
    <i name="e_fr_energy">    304.23934798 </i>
    <i name="e_wo_entrp">    304.24896507 </i>
    <i name="e_0_energy">    304.24415652 </i>
   </energy>
  </scstep>
  <scstep>
   <time name="dav">    1.23    1.23</time>
   <time name="total">    1.23    1.23</time>
   <energy>
    <i name="e_fr_energy">    -61.45429623 </i>
    <i name="e_wo_entrp">    -61.45429623 </i>
    <i name="e_0_energy">    -61.45429623 </i>
   </energy>
  </scstep>
  <scstep>
   <time name="dav">    1.15    1.15</time>
   <time name="total">    1.15    1.15</time>
   <energy>
    <i name="e_fr_energy">    -80.17834141 </i>
    <i name="e_wo_entrp">    -80.17834141 </i>
    <i name="e_0_energy">    -80.17834141 </i>
   </energy>
  </scstep>
  <scstep>
   <time name="dav">    1.15    1.16</time>
   <time name="total">    1.16    1.16</time>
   <energy>
    <i name="e_fr_energy">    -80.41868484 </i>
    <i name="e_wo_entrp">    -80.41868484 </i>
    <i name="e_0_energy">    -80.41868484 </i>
   </energy>
  </scstep>
  <scstep>
   <time name="dav">    1.13    1.13</time>
   <time name="total">    1.32    1.29</time>
   <energy>
    <i name="e_fr_energy">    -80.42332655 </i>
    <i name="e_wo_entrp">    -80.42332655 </i>
    <i name="e_0_energy">    -80.42332655 </i>
   </energy>
  </scstep>
  <scstep>
   <time name="diag">    0.12    0.12</time>
   <time name="diis">    1.28    1.29</time>
   <time name="orth">    0.01    0.01</time>
   <time name="total">    1.62    1.57</time>
   <energy>
    <i name="e_fr_energy">    -70.67418788 </i>
    <i name="e_wo_entrp">    -70.67418788 </i>
    <i name="e_0_energy">    -70.67418788 </i>
   </energy>
  </scstep>
  <scstep>
   <time name="diag">    0.12    0.11</time>
   <time name="diis">    1.42    1.43</time>
   <time name="orth">    0.01    0.01</time>
   <time name="total">    1.76    1.71</time>
   <energy>
    <i name="e_fr_energy">    -70.97635435 </i>
    <i name="e_wo_entrp">    -70.97635435 </i>
    <i name="e_0_energy">    -70.97635435 </i>
   </energy>
  </scstep>
  <scstep>
   <time name="diag">    0.12    0.12</time>
   <time name="diis">    1.42    1.42</time>
   <time name="orth">    0.01    0.01</time>
   <time name="total">    1.75    1.70</time>
   <energy>
    <i name="e_fr_energy">    -70.96836083 </i>
    <i name="e_wo_entrp">    -70.96836083 </i>
    <i name="e_0_energy">    -70.96836083 </i>
   </energy>
  </scstep>
  <scstep>
   <time name="diag">    0.12    0.12</time>
   <time name="diis">    1.45    1.45</time>
   <time name="orth">    0.01    0.01</time>
   <time name="total">    1.78    1.73</time>
   <energy>
    <i name="e_fr_energy">    -70.98744980 </i>
    <i name="e_wo_entrp">    -70.98744980 </i>
    <i name="e_0_energy">    -70.98744980 </i>
   </energy>
  </scstep>
  <scstep>
   <time name="diag">    0.12    0.12</time>
   <time name="diis">    1.45    1.45</time>
   <time name="orth">    0.01    0.01</time>
   <time name="total">    1.79    1.73</time>
   <energy>
    <i name="e_fr_energy">    -70.99272370 </i>
    <i name="e_wo_entrp">    -70.99272370 </i>
    <i name="e_0_energy">    -70.99272370 </i>
   </energy>
  </scstep>
  <scstep>
   <time name="diag">    0.12    0.11</time>
   <time name="diis">    1.45    1.45</time>
   <time name="orth">    0.01    0.01</time>
   <time name="total">    1.78    1.73</time>
   <energy>
    <i name="e_fr_energy">    -70.98889645 </i>
    <i name="e_wo_entrp">    -70.98889645 </i>
    <i name="e_0_energy">    -70.98889645 </i>
   </energy>
  </scstep>
  <scstep>
   <time name="diag">    0.12    0.12</time>
   <time name="diis">    1.45    1.46</time>
   <time name="orth">    0.01    0.01</time>
   <time name="total">    1.79    1.74</time>
   <energy>
    <i name="e_fr_energy">    -70.98950308 </i>
    <i name="e_wo_entrp">    -70.98950308 </i>
    <i name="e_0_energy">    -70.98950308 </i>
   </energy>
  </scstep>
  <scstep>
   <time name="diag">    0.12    0.11</time>
   <time name="diis">    1.54    1.55</time>
   <time name="orth">    0.01    0.01</time>
   <time name="total">    1.89    1.83</time>
   <energy>
    <i name="e_fr_energy">    -70.98927034 </i>
    <i name="e_wo_entrp">    -70.98927034 </i>
    <i name="e_0_energy">    -70.98927034 </i>
   </energy>
  </scstep>
  <scstep>
   <time name="diag">    0.12    0.12</time>
   <time name="diis">    1.46    1.46</time>
   <time name="orth">    0.01    0.01</time>
   <time name="total">    1.79    1.74</time>
   <energy>
    <i name="e_fr_energy">    -70.98922454 </i>
    <i name="e_wo_entrp">    -70.98922454 </i>
    <i name="e_0_energy">    -70.98922454 </i>
   </energy>
  </scstep>
  <scstep>
   <time name="diag">    0.12    0.11</time>
   <time name="diis">    1.57    1.57</time>
   <time name="orth">    0.01    0.01</time>
   <time name="total">    1.91    1.85</time>
   <energy>
    <i name="e_fr_energy">    -70.98922022 </i>
    <i name="e_wo_entrp">    -70.98922022 </i>
    <i name="e_0_energy">    -70.98922022 </i>
   </energy>
  </scstep>
  <scstep>
   <time name="diag">    0.12    0.12</time>
   <time name="diis">    1.45    1.45</time>
   <time name="orth">    0.01    0.01</time>
   <time name="total">    1.78    1.73</time>
   <energy>
    <i name="e_fr_energy">    -70.98921920 </i>
    <i name="e_wo_entrp">    -70.98921920 </i>
    <i name="e_0_energy">    -70.98921920 </i>
   </energy>
  </scstep>
  <scstep>
   <time name="diag">    0.12    0.12</time>
   <time name="diis">    1.46    1.46</time>
   <time name="orth">    0.01    0.01</time>
   <time name="total">    1.80    1.75</time>
   <energy>
    <i name="e_fr_energy">    -70.98921944 </i>
    <i name="e_wo_entrp">    -70.98921944 </i>
    <i name="e_0_energy">    -70.98921944 </i>
   </energy>
  </scstep>
  <scstep>
   <time name="diag">    0.12    0.12</time>
   <time name="diis">    1.59    1.59</time>
   <time name="orth">    0.01    0.01</time>
   <time name="total">    1.93    1.88</time>
   <energy>
    <i name="e_fr_energy">    -70.98921966 </i>
    <i name="e_wo_entrp">    -70.98921966 </i>
    <i name="e_0_energy">    -70.98921966 </i>
   </energy>
  </scstep>
  <scstep>
   <time name="diag">    0.12    0.12</time>
   <time name="diis">    1.46    1.46</time>
   <time name="orth">    0.01    0.01</time>
   <time name="total">    1.79    1.74</time>
   <energy>
    <i name="e_fr_energy">    -70.98921963 </i>
    <i name="e_wo_entrp">    -70.98921963 </i>
    <i name="e_0_energy">    -70.98921963 </i>
   </energy>
  </scstep>
  <scstep>
   <time name="diag">    0.12    0.12</time>
   <time name="diis">    1.45    1.46</time>
   <time name="orth">    0.01    0.01</time>
   <time name="total">    1.79    1.74</time>
   <energy>
    <i name="e_fr_energy">    -70.98921967 </i>
    <i name="e_wo_entrp">    -70.98921967 </i>
    <i name="e_0_energy">    -70.98921967 </i>
   </energy>
  </scstep>
  <scstep>
   <time name="diag">    0.12    0.12</time>
   <time name="diis">    1.00    1.00</time>
   <time name="orth">    0.01    0.01</time>
   <time name="total">    1.34    1.28</time>
   <energy>
    <i name="e_fr_energy">    -70.98921964 </i>
    <i name="e_wo_entrp">    -70.98921964 </i>
    <i name="e_0_energy">    -70.98921964 </i>
   </energy>
  </scstep>
  <scstep>
   <time name="diag">    0.12    0.12</time>
   <time name="diis">    0.98    0.98</time>
   <time name="orth">    0.01    0.01</time>
   <time name="total">    1.14    1.12</time>
   <energy>
    <i name="alphaZ">     71.30271804 </i>
    <i name="ewald">  -1930.19441682 </i>
    <i name="hartreedc">  -1040.55698546 </i>
    <i name="XCdc">    150.68546169 </i>
    <i name="pawpsdc">   8045.45327808 </i>
    <i name="pawaedc">  -8005.83108511 </i>
    <i name="eentropy">     -0.00000000 </i>
    <i name="bandstr">   -265.18556777 </i>
    <i name="atom">   2903.33737771 </i>
    <i name="e_fr_energy">    -70.98921964 </i>
    <i name="e_wo_entrp">    -70.98921964 </i>
    <i name="e_0_energy">    -70.98921964 </i>
   </energy>
  </scstep>
  <structure>
   <crystal>
    <varray name="basis" >
     <v>       4.87342988       0.00000000       0.00000000 </v>
     <v>      -2.43671494       4.22051408       0.00000000 </v>
     <v>       0.00000000       0.00000000       5.37418982 </v>
    </varray>
    <i name="volume">    110.53837516 </i>
    <varray name="rec_basis" >
     <v>       0.20519429       0.11846898      -0.00000000 </v>
     <v>       0.00000000       0.23693796       0.00000000 </v>
     <v>       0.00000000      -0.00000000       0.18607456 </v>
    </varray>
   </crystal>
   <varray name="positions" >
    <v>       0.46465457       0.99994324       0.66658430 </v>
    <v>       0.99997162       0.46467587       0.33337452 </v>
    <v>       0.53533835       0.53530997       0.00004118 </v>
    <v>       0.13531007       0.72409692       0.55415995 </v>
    <v>       0.27608725       0.41160306       0.22094055 </v>
    <v>       0.58830014       0.86436227       0.88746582 </v>
    <v>       0.41179756       0.27613189       0.77911574 </v>
    <v>       0.86454007       0.58859235       0.11256300 </v>
    <v>       0.72402715       0.13533801       0.44575494 </v>
   </varray>
  </structure>
  <varray name="forces" >
   <v>       0.01815443       0.00157680       0.00276804 </v>
   <v>      -0.00826404       0.01595494      -0.00135587 </v>
   <v>      -0.00980276      -0.01546538      -0.00141354 </v>
   <v>      -0.27117311      -0.00276678       0.15433570 </v>
   <v>       0.13824261      -0.23930379       0.15137311 </v>
   <v>       0.13866156       0.24107844       0.15448474 </v>
   <v>      -0.27937001      -0.00062035      -0.15249645 </v>
   <v>       0.13889686       0.23620301      -0.15500009 </v>
   <v>       0.13465447      -0.23665690      -0.15269564 </v>
  </varray>
  <varray name="stress" >
   <v>      71.96314368      -0.02055941       0.20101704 </v>
   <v>      -0.02055945      71.96165261      -0.00174785 </v>
   <v>       0.20101711      -0.00174762      73.61376979 </v>
  </varray>
  <energy>
   <i name="e_fr_energy">    -70.98921964 </i>
   <i name="e_wo_entrp">    -70.98921964 </i>
   <i name="e_0_energy">    -70.98921964 </i>
  </energy>
  <scstep>
   <time name="total">   22.06    4.38</time>
   <energy>
    <i name="e_fr_energy">   -182.47178129 </i>
    <i name="e_wo_entrp">   -182.47178129 </i>
    <i name="e_0_energy">   -182.47178129 </i>
   </energy>
  </scstep>
  <scstep>
   <time name="total">   21.64    3.90</time>
   <energy>
    <i name="e_fr_energy">   -172.60759352 </i>
    <i name="e_wo_entrp">   -172.60759352 </i>
    <i name="e_0_energy">   -172.60759352 </i>
   </energy>
  </scstep>
  <scstep>
   <time name="total">   21.74    3.93</time>
   <energy>
    <i name="e_fr_energy">   -172.75509906 </i>
    <i name="e_wo_entrp">   -172.75509906 </i>
    <i name="e_0_energy">   -172.75509906 </i>
   </energy>
  </scstep>
  <scstep>
   <time name="total">    1.39    1.39</time>
   <energy>
    <i name="e_fr_energy">   -172.76249132 </i>
    <i name="e_wo_entrp">   -172.76249132 </i>
    <i name="e_0_energy">   -172.76249132 </i>
   </energy>
  </scstep>
  <scstep>
   <time name="total">    1.40    1.40</time>
   <energy>
    <i name="e_fr_energy">   -172.76269334 </i>
    <i name="e_wo_entrp">   -172.76269334 </i>
    <i name="e_0_energy">   -172.76269334 </i>
   </energy>
  </scstep>
  <scstep>
   <time name="total">    1.43    1.43</time>
   <energy>
    <i name="e_fr_energy">   -172.76270079 </i>
    <i name="e_wo_entrp">   -172.76270079 </i>
    <i name="e_0_energy">   -172.76270079 </i>
   </energy>
  </scstep>
  <scstep>
   <time name="total">    1.46    1.46</time>
   <energy>
    <i name="e_fr_energy">   -172.76269938 </i>
    <i name="e_wo_entrp">   -172.76269938 </i>
    <i name="e_0_energy">   -172.76269938 </i>
   </energy>
  </scstep>
  <scstep>
   <time name="total">    1.44    1.45</time>
   <energy>
    <i name="e_fr_energy">   -172.76269549 </i>
    <i name="e_wo_entrp">   -172.76269549 </i>
    <i name="e_0_energy">   -172.76269549 </i>
   </energy>
  </scstep>
  <scstep>
   <time name="total">    1.46    1.47</time>
   <energy>
    <i name="e_fr_energy">   -172.76269360 </i>
    <i name="e_wo_entrp">   -172.76269360 </i>
    <i name="e_0_energy">   -172.76269360 </i>
   </energy>
  </scstep>
  <scstep>
   <time name="total">    1.47    1.47</time>
   <energy>
    <i name="e_fr_energy">   -172.76269085 </i>
    <i name="e_wo_entrp">   -172.76269085 </i>
    <i name="e_0_energy">   -172.76269085 </i>
   </energy>
  </scstep>
  <scstep>
   <time name="total">   22.07    4.38</time>
   <energy>
    <i name="e_fr_energy">   -182.31840544 </i>
    <i name="e_wo_entrp">   -182.31840544 </i>
    <i name="e_0_energy">   -182.31840544 </i>
   </energy>
  </scstep>
  <scstep>
   <time name="total">   21.51    3.87</time>
   <energy>
    <i name="e_fr_energy">   -172.61128252 </i>
    <i name="e_wo_entrp">   -172.61128252 </i>
    <i name="e_0_energy">   -172.61128252 </i>
   </energy>
  </scstep>
  <scstep>
   <time name="total">   21.59    3.92</time>
   <energy>
    <i name="e_fr_energy">   -172.75501529 </i>
    <i name="e_wo_entrp">   -172.75501529 </i>
    <i name="e_0_energy">   -172.75501529 </i>
   </energy>
  </scstep>
  <scstep>
   <time name="total">    1.39    1.39</time>
   <energy>
    <i name="e_fr_energy">   -172.76224988 </i>
    <i name="e_wo_entrp">   -172.76224988 </i>
    <i name="e_0_energy">   -172.76224988 </i>
   </energy>
  </scstep>
  <scstep>
   <time name="total">    1.39    1.39</time>
   <energy>
    <i name="e_fr_energy">   -172.76242021 </i>
    <i name="e_wo_entrp">   -172.76242021 </i>
    <i name="e_0_energy">   -172.76242021 </i>
   </energy>
  </scstep>
  <scstep>
   <time name="total">    1.44    1.44</time>
   <energy>
    <i name="e_fr_energy">   -172.76243401 </i>
    <i name="e_wo_entrp">   -172.76243401 </i>
    <i name="e_0_energy">   -172.76243401 </i>
   </energy>
  </scstep>
  <scstep>
   <time name="total">    1.44    1.45</time>
   <energy>
    <i name="e_fr_energy">   -172.76243673 </i>
    <i name="e_wo_entrp">   -172.76243673 </i>
    <i name="e_0_energy">   -172.76243673 </i>
   </energy>
  </scstep>
  <scstep>
   <time name="total">    1.46    1.47</time>
   <energy>
    <i name="e_fr_energy">   -172.76243716 </i>
    <i name="e_wo_entrp">   -172.76243716 </i>
    <i name="e_0_energy">   -172.76243716 </i>
   </energy>
  </scstep>
  <scstep>
   <time name="total">    1.45    1.45</time>
   <energy>
    <i name="e_fr_energy">   -172.76243721 </i>
    <i name="e_wo_entrp">   -172.76243721 </i>
    <i name="e_0_energy">   -172.76243721 </i>
   </energy>
  </scstep>
  <scstep>
   <time name="total">    1.47    1.47</time>
   <energy>
    <i name="e_fr_energy">   -172.76243746 </i>
    <i name="e_wo_entrp">   -172.76243746 </i>
    <i name="e_0_energy">   -172.76243746 </i>
   </energy>
  </scstep>
  <scstep>
   <time name="total">   21.88    4.36</time>
   <energy>
    <i name="e_fr_energy">   -182.14628598 </i>
    <i name="e_wo_entrp">   -182.14628598 </i>
    <i name="e_0_energy">   -182.14628598 </i>
   </energy>
  </scstep>
  <scstep>
   <time name="total">   21.52    3.88</time>
   <energy>
    <i name="e_fr_energy">   -172.56026425 </i>
    <i name="e_wo_entrp">   -172.56026425 </i>
    <i name="e_0_energy">   -172.56026425 </i>
   </energy>
  </scstep>
  <scstep>
   <time name="total">   21.62    3.91</time>
   <energy>
    <i name="e_fr_energy">   -172.71026891 </i>
    <i name="e_wo_entrp">   -172.71026891 </i>
    <i name="e_0_energy">   -172.71026891 </i>
   </energy>
  </scstep>
  <scstep>
   <time name="total">    1.37    1.37</time>
   <energy>
    <i name="e_fr_energy">   -172.71734346 </i>
    <i name="e_wo_entrp">   -172.71734346 </i>
    <i name="e_0_energy">   -172.71734346 </i>
   </energy>
  </scstep>
  <scstep>
   <time name="total">    1.40    1.41</time>
   <energy>
    <i name="e_fr_energy">   -172.71748247 </i>
    <i name="e_wo_entrp">   -172.71748247 </i>
    <i name="e_0_energy">   -172.71748247 </i>
   </energy>
  </scstep>
  <scstep>
   <time name="total">    1.40    1.41</time>
   <energy>
    <i name="e_fr_energy">   -172.71749709 </i>
    <i name="e_wo_entrp">   -172.71749709 </i>
    <i name="e_0_energy">   -172.71749709 </i>
   </energy>
  </scstep>
  <scstep>
   <time name="total">    1.45    1.46</time>
   <energy>
    <i name="e_fr_energy">   -172.71748146 </i>
    <i name="e_wo_entrp">   -172.71748146 </i>
    <i name="e_0_energy">   -172.71748146 </i>
   </energy>
  </scstep>
  <scstep>
   <time name="total">    1.44    1.44</time>
   <energy>
    <i name="e_fr_energy">   -172.71750593 </i>
    <i name="e_wo_entrp">   -172.71750593 </i>
    <i name="e_0_energy">   -172.71750593 </i>
   </energy>
  </scstep>
  <scstep>
   <time name="total">    1.46    1.46</time>
   <energy>
    <i name="e_fr_energy">   -172.71750372 </i>
    <i name="e_wo_entrp">   -172.71750372 </i>
    <i name="e_0_energy">   -172.71750372 </i>
   </energy>
  </scstep>
  <scstep>
   <time name="total">    1.48    1.49</time>
   <energy>
    <i name="e_fr_energy">   -172.71750827 </i>
    <i name="e_wo_entrp">   -172.71750827 </i>
    <i name="e_0_energy">   -172.71750827 </i>
   </energy>
  </scstep>
  <scstep>
   <time name="total">    2.38    1.80</time>
   <energy>
    <i name="e_fr_energy">     -0.48311482 </i>
    <i name="e_wo_entrp">     -0.48311482 </i>
    <i name="e_0_energy">     -0.48311482 </i>
   </energy>
  </scstep>
  <scstep>
   <time name="total">    2.48    1.85</time>
   <energy>
    <i name="e_fr_energy">     -0.48537280 </i>
    <i name="e_wo_entrp">     -0.48537280 </i>
    <i name="e_0_energy">     -0.48537280 </i>
   </energy>
  </scstep>
  <scstep>
   <time name="total">    2.40    1.83</time>
   <energy>
    <i name="e_fr_energy">     -0.48555983 </i>
    <i name="e_wo_entrp">     -0.48555983 </i>
    <i name="e_0_energy">     -0.48555983 </i>
   </energy>
  </scstep>
  <scstep>
   <time name="total">    2.46    1.84</time>
   <energy>
    <i name="e_fr_energy">     -0.48556840 </i>
    <i name="e_wo_entrp">     -0.48556840 </i>
    <i name="e_0_energy">     -0.48556840 </i>
   </energy>
  </scstep>
  <scstep>
   <time name="total">    2.39    1.83</time>
   <energy>
    <i name="e_fr_energy">     -0.48556870 </i>
    <i name="e_wo_entrp">     -0.48556870 </i>
    <i name="e_0_energy">     -0.48556870 </i>
   </energy>
  </scstep>
  <scstep>
   <time name="total">    2.33    1.76</time>
   <energy>
    <i name="e_fr_energy">     -0.48556872 </i>
    <i name="e_wo_entrp">     -0.48556872 </i>
    <i name="e_0_energy">     -0.48556872 </i>
   </energy>
  </scstep>
  <scstep>
   <time name="total">    2.28    1.72</time>
   <energy>
    <i name="e_fr_energy">     -0.48556872 </i>
    <i name="e_wo_entrp">     -0.48556872 </i>
    <i name="e_0_energy">     -0.48556872 </i>
   </energy>
  </scstep>
  <scstep>
   <time name="total">    2.24    1.69</time>
   <energy>
    <i name="e_fr_energy">     -0.48556872 </i>
    <i name="e_wo_entrp">     -0.48556872 </i>
    <i name="e_0_energy">     -0.48556872 </i>
   </energy>
  </scstep>
  <scstep>
   <time name="total">    2.26    1.70</time>
   <energy>
    <i name="e_fr_energy">     -0.48556872 </i>
    <i name="e_wo_entrp">     -0.48556872 </i>
    <i name="e_0_energy">     -0.48556872 </i>
   </energy>
  </scstep>
  <scstep>
   <time name="total">    2.38    1.80</time>
   <energy>
    <i name="e_fr_energy">     -0.48315616 </i>
    <i name="e_wo_entrp">     -0.48315616 </i>
    <i name="e_0_energy">     -0.48315616 </i>
   </energy>
  </scstep>
  <scstep>
   <time name="total">    2.36    1.80</time>
   <energy>
    <i name="e_fr_energy">     -0.48537090 </i>
    <i name="e_wo_entrp">     -0.48537090 </i>
    <i name="e_0_energy">     -0.48537090 </i>
   </energy>
  </scstep>
  <scstep>
   <time name="total">    2.37    1.80</time>
   <energy>
    <i name="e_fr_energy">     -0.48555985 </i>
    <i name="e_wo_entrp">     -0.48555985 </i>
    <i name="e_0_energy">     -0.48555985 </i>
   </energy>
  </scstep>
  <scstep>
   <time name="total">    2.39    1.83</time>
   <energy>
    <i name="e_fr_energy">     -0.48556855 </i>
    <i name="e_wo_entrp">     -0.48556855 </i>
    <i name="e_0_energy">     -0.48556855 </i>
   </energy>
  </scstep>
  <scstep>
   <time name="total">    2.38    1.82</time>
   <energy>
    <i name="e_fr_energy">     -0.48556885 </i>
    <i name="e_wo_entrp">     -0.48556885 </i>
    <i name="e_0_energy">     -0.48556885 </i>
   </energy>
  </scstep>
  <scstep>
   <time name="total">    2.31    1.75</time>
   <energy>
    <i name="e_fr_energy">     -0.48556887 </i>
    <i name="e_wo_entrp">     -0.48556887 </i>
    <i name="e_0_energy">     -0.48556887 </i>
   </energy>
  </scstep>
  <scstep>
   <time name="total">    2.24    1.68</time>
   <energy>
    <i name="e_fr_energy">     -0.48556887 </i>
    <i name="e_wo_entrp">     -0.48556887 </i>
    <i name="e_0_energy">     -0.48556887 </i>
   </energy>
  </scstep>
  <scstep>
   <time name="total">    2.23    1.67</time>
   <energy>
    <i name="e_fr_energy">     -0.48556887 </i>
    <i name="e_wo_entrp">     -0.48556887 </i>
    <i name="e_0_energy">     -0.48556887 </i>
   </energy>
  </scstep>
  <scstep>
   <time name="total">    2.21    1.65</time>
   <energy>
    <i name="e_fr_energy">     -0.48556887 </i>
    <i name="e_wo_entrp">     -0.48556887 </i>
    <i name="e_0_energy">     -0.48556887 </i>
   </energy>
  </scstep>
  <scstep>
   <time name="total">    2.38    1.81</time>
   <energy>
    <i name="e_fr_energy">     -0.48761266 </i>
    <i name="e_wo_entrp">     -0.48761266 </i>
    <i name="e_0_energy">     -0.48761266 </i>
   </energy>
  </scstep>
  <scstep>
   <time name="total">    2.34    1.78</time>
   <energy>
    <i name="e_fr_energy">     -0.48965630 </i>
    <i name="e_wo_entrp">     -0.48965630 </i>
    <i name="e_0_energy">     -0.48965630 </i>
   </energy>
  </scstep>
  <scstep>
   <time name="total">    2.37    1.81</time>
   <energy>
    <i name="e_fr_energy">     -0.48984723 </i>
    <i name="e_wo_entrp">     -0.48984723 </i>
    <i name="e_0_energy">     -0.48984723 </i>
   </energy>
  </scstep>
  <scstep>
   <time name="total">    2.38    1.81</time>
   <energy>
    <i name="e_fr_energy">     -0.48985614 </i>
    <i name="e_wo_entrp">     -0.48985614 </i>
    <i name="e_0_energy">     -0.48985614 </i>
   </energy>
  </scstep>
  <scstep>
   <time name="total">    2.39    1.82</time>
   <energy>
    <i name="e_fr_energy">     -0.48985645 </i>
    <i name="e_wo_entrp">     -0.48985645 </i>
    <i name="e_0_energy">     -0.48985645 </i>
   </energy>
  </scstep>
  <scstep>
   <time name="total">    2.31    1.75</time>
   <energy>
    <i name="e_fr_energy">     -0.48985647 </i>
    <i name="e_wo_entrp">     -0.48985647 </i>
    <i name="e_0_energy">     -0.48985647 </i>
   </energy>
  </scstep>
  <scstep>
   <time name="total">    2.26    1.70</time>
   <energy>
    <i name="e_fr_energy">     -0.48985647 </i>
    <i name="e_wo_entrp">     -0.48985647 </i>
    <i name="e_0_energy">     -0.48985647 </i>
   </energy>
  </scstep>
  <scstep>
   <time name="total">    2.21    1.65</time>
   <energy>
    <i name="e_fr_energy">     -0.48985647 </i>
    <i name="e_wo_entrp">     -0.48985647 </i>
    <i name="e_0_energy">     -0.48985647 </i>
   </energy>
  </scstep>
  <scstep>
   <time name="total">    2.23    1.66</time>
   <energy>
    <i name="e_fr_energy">     -0.48985647 </i>
    <i name="e_wo_entrp">     -0.48985647 </i>
    <i name="e_0_energy">     -0.48985647 </i>
   </energy>
  </scstep>
  <scstep>
   <time name="total">    2.20    1.64</time>
   <energy>
    <i name="e_fr_energy">     -0.48985647 </i>
    <i name="e_wo_entrp">     -0.48985647 </i>
    <i name="e_0_energy">     -0.48985647 </i>
   </energy>
  </scstep>
  <varray name="dielectric_ipa" >
   <v>       2.58976570      -0.00005245      -0.00015377 </v>
   <v>      -0.00004904       2.58976173      -0.00000207 </v>
   <v>      -0.00015468      -0.00000358       2.60380591 </v>
  </varray>
  <kpoints>
   <generation param="Gamma">
    <v type="int" name="divisions">       4        4        4 </v>
    <v name="usershift">      0.00000000       0.00000000       0.00000000 </v>
    <v name="genvec1">      0.25000000       0.00000000       0.00000000 </v>
    <v name="genvec2">      0.00000000       0.25000000       0.00000000 </v>
    <v name="genvec3">      0.00000000       0.00000000       0.25000000 </v>
    <v name="shift">      0.00000000       0.00000000       0.00000000 </v>
   </generation>
   <varray name="kpointlist" >
    <v>       0.00000000       0.00000000       0.00000000 </v>
    <v>       0.25000000       0.00000000       0.00000000 </v>
    <v>       0.00000000       0.25000000       0.00000000 </v>
    <v>      -0.25000000       0.25000000       0.00000000 </v>
    <v>       0.50000000       0.00000000       0.00000000 </v>
    <v>       0.00000000       0.50000000       0.00000000 </v>
    <v>       0.50000000       0.50000000       0.00000000 </v>
    <v>       0.25000000       0.25000000       0.00000000 </v>
    <v>      -0.25000000       0.50000000       0.00000000 </v>
    <v>       0.50000000       0.25000000       0.00000000 </v>
    <v>       0.00000000       0.00000000       0.25000000 </v>
    <v>       0.25000000       0.00000000       0.25000000 </v>
    <v>       0.00000000       0.25000000       0.25000000 </v>
    <v>      -0.25000000       0.25000000       0.25000000 </v>
    <v>      -0.25000000       0.00000000       0.25000000 </v>
    <v>       0.00000000      -0.25000000       0.25000000 </v>
    <v>       0.25000000      -0.25000000       0.25000000 </v>
    <v>       0.50000000       0.00000000       0.25000000 </v>
    <v>       0.00000000       0.50000000       0.25000000 </v>
    <v>       0.50000000       0.50000000       0.25000000 </v>
    <v>       0.25000000       0.25000000       0.25000000 </v>
    <v>      -0.25000000       0.50000000       0.25000000 </v>
    <v>       0.50000000       0.25000000       0.25000000 </v>
    <v>      -0.25000000      -0.25000000       0.25000000 </v>
    <v>       0.25000000       0.50000000       0.25000000 </v>
    <v>       0.50000000      -0.25000000       0.25000000 </v>
    <v>       0.00000000       0.00000000       0.50000000 </v>
    <v>       0.25000000       0.00000000       0.50000000 </v>
    <v>       0.00000000       0.25000000       0.50000000 </v>
    <v>      -0.25000000       0.25000000       0.50000000 </v>
    <v>       0.50000000       0.00000000       0.50000000 </v>
    <v>       0.00000000       0.50000000       0.50000000 </v>
    <v>       0.50000000       0.50000000       0.50000000 </v>
    <v>       0.25000000       0.25000000       0.50000000 </v>
    <v>      -0.25000000       0.50000000       0.50000000 </v>
    <v>       0.50000000       0.25000000       0.50000000 </v>
   </varray>
   <varray name="weights" >
    <v>       0.01562500 </v>
    <v>       0.03125000 </v>
    <v>       0.03125000 </v>
    <v>       0.03125000 </v>
    <v>       0.01562500 </v>
    <v>       0.01562500 </v>
    <v>       0.01562500 </v>
    <v>       0.03125000 </v>
    <v>       0.03125000 </v>
    <v>       0.03125000 </v>
    <v>       0.03125000 </v>
    <v>       0.03125000 </v>
    <v>       0.03125000 </v>
    <v>       0.03125000 </v>
    <v>       0.03125000 </v>
    <v>       0.03125000 </v>
    <v>       0.03125000 </v>
    <v>       0.03125000 </v>
    <v>       0.03125000 </v>
    <v>       0.03125000 </v>
    <v>       0.03125000 </v>
    <v>       0.03125000 </v>
    <v>       0.03125000 </v>
    <v>       0.03125000 </v>
    <v>       0.03125000 </v>
    <v>       0.03125000 </v>
    <v>       0.01562500 </v>
    <v>       0.03125000 </v>
    <v>       0.03125000 </v>
    <v>       0.03125000 </v>
    <v>       0.01562500 </v>
    <v>       0.01562500 </v>
    <v>       0.01562500 </v>
    <v>       0.03125000 </v>
    <v>       0.03125000 </v>
    <v>       0.03125000 </v>
   </varray>
  </kpoints>
  <scstep>
   <time name="total">    2.38    1.81</time>
   <energy>
    <i name="e_fr_energy">     -0.48311482 </i>
    <i name="e_wo_entrp">     -0.48311482 </i>
    <i name="e_0_energy">     -0.48311482 </i>
   </energy>
  </scstep>
  <scstep>
   <time name="total">    2.46    1.87</time>
   <energy>
    <i name="e_fr_energy">     -0.48537280 </i>
    <i name="e_wo_entrp">     -0.48537280 </i>
    <i name="e_0_energy">     -0.48537280 </i>
   </energy>
  </scstep>
  <scstep>
   <time name="total">    2.49    1.90</time>
   <energy>
    <i name="e_fr_energy">     -0.46521071 </i>
    <i name="e_wo_entrp">     -0.46521071 </i>
    <i name="e_0_energy">     -0.46521071 </i>
   </energy>
  </scstep>
  <scstep>
   <time name="total">    2.49    1.90</time>
   <energy>
    <i name="e_fr_energy">     -0.47601894 </i>
    <i name="e_wo_entrp">     -0.47601894 </i>
    <i name="e_0_energy">     -0.47601894 </i>
   </energy>
  </scstep>
  <scstep>
   <time name="total">    2.55    1.90</time>
   <energy>
    <i name="e_fr_energy">     -0.49377125 </i>
    <i name="e_wo_entrp">     -0.49377125 </i>
    <i name="e_0_energy">     -0.49377125 </i>
   </energy>
  </scstep>
  <scstep>
   <time name="total">    2.45    1.86</time>
   <energy>
    <i name="e_fr_energy">     -0.49670323 </i>
    <i name="e_wo_entrp">     -0.49670323 </i>
    <i name="e_0_energy">     -0.49670323 </i>
   </energy>
  </scstep>
  <scstep>
   <time name="total">    2.50    1.91</time>
   <energy>
    <i name="e_fr_energy">     -0.49693968 </i>
    <i name="e_wo_entrp">     -0.49693968 </i>
    <i name="e_0_energy">     -0.49693968 </i>
   </energy>
  </scstep>
  <scstep>
   <time name="total">    2.52    1.92</time>
   <energy>
    <i name="e_fr_energy">     -0.49717311 </i>
    <i name="e_wo_entrp">     -0.49717311 </i>
    <i name="e_0_energy">     -0.49717311 </i>
   </energy>
  </scstep>
  <scstep>
   <time name="total">    2.57    1.93</time>
   <energy>
    <i name="e_fr_energy">     -0.49723596 </i>
    <i name="e_wo_entrp">     -0.49723596 </i>
    <i name="e_0_energy">     -0.49723596 </i>
   </energy>
  </scstep>
  <scstep>
   <time name="total">    2.54    1.95</time>
   <energy>
    <i name="e_fr_energy">     -0.49723157 </i>
    <i name="e_wo_entrp">     -0.49723157 </i>
    <i name="e_0_energy">     -0.49723157 </i>
   </energy>
  </scstep>
  <scstep>
   <time name="total">    2.55    1.95</time>
   <energy>
    <i name="e_fr_energy">     -0.49723261 </i>
    <i name="e_wo_entrp">     -0.49723261 </i>
    <i name="e_0_energy">     -0.49723261 </i>
   </energy>
  </scstep>
  <scstep>
   <time name="total">    2.51    1.92</time>
   <energy>
    <i name="e_fr_energy">     -0.49723248 </i>
    <i name="e_wo_entrp">     -0.49723248 </i>
    <i name="e_0_energy">     -0.49723248 </i>
   </energy>
  </scstep>
  <scstep>
   <time name="total">    2.51    1.91</time>
   <energy>
    <i name="e_fr_energy">     -0.49723241 </i>
    <i name="e_wo_entrp">     -0.49723241 </i>
    <i name="e_0_energy">     -0.49723241 </i>
   </energy>
  </scstep>
  <scstep>
   <time name="total">    2.61    1.98</time>
   <energy>
    <i name="e_fr_energy">     -0.49723241 </i>
    <i name="e_wo_entrp">     -0.49723241 </i>
    <i name="e_0_energy">     -0.49723241 </i>
   </energy>
  </scstep>
  <kpoints>
   <generation param="Gamma">
    <v type="int" name="divisions">       4        4        4 </v>
    <v name="usershift">      0.00000000       0.00000000       0.00000000 </v>
    <v name="genvec1">      0.25000000       0.00000000       0.00000000 </v>
    <v name="genvec2">      0.00000000       0.25000000       0.00000000 </v>
    <v name="genvec3">      0.00000000       0.00000000       0.25000000 </v>
    <v name="shift">      0.00000000       0.00000000       0.00000000 </v>
   </generation>
   <varray name="kpointlist" >
    <v>       0.00000000       0.00000000       0.00000000 </v>
    <v>       0.25000000       0.00000000       0.00000000 </v>
    <v>       0.00000000       0.25000000       0.00000000 </v>
    <v>      -0.25000000       0.25000000       0.00000000 </v>
    <v>       0.50000000       0.00000000       0.00000000 </v>
    <v>       0.00000000       0.50000000       0.00000000 </v>
    <v>       0.50000000       0.50000000       0.00000000 </v>
    <v>       0.25000000       0.25000000       0.00000000 </v>
    <v>      -0.25000000       0.50000000       0.00000000 </v>
    <v>       0.50000000       0.25000000       0.00000000 </v>
    <v>       0.00000000       0.00000000       0.25000000 </v>
    <v>       0.25000000       0.00000000       0.25000000 </v>
    <v>       0.00000000       0.25000000       0.25000000 </v>
    <v>      -0.25000000       0.25000000       0.25000000 </v>
    <v>      -0.25000000       0.00000000       0.25000000 </v>
    <v>       0.00000000      -0.25000000       0.25000000 </v>
    <v>       0.25000000      -0.25000000       0.25000000 </v>
    <v>       0.50000000       0.00000000       0.25000000 </v>
    <v>       0.00000000       0.50000000       0.25000000 </v>
    <v>       0.50000000       0.50000000       0.25000000 </v>
    <v>       0.25000000       0.25000000       0.25000000 </v>
    <v>      -0.25000000       0.50000000       0.25000000 </v>
    <v>       0.50000000       0.25000000       0.25000000 </v>
    <v>      -0.25000000      -0.25000000       0.25000000 </v>
    <v>       0.25000000       0.50000000       0.25000000 </v>
    <v>       0.50000000      -0.25000000       0.25000000 </v>
    <v>       0.00000000       0.00000000       0.50000000 </v>
    <v>       0.25000000       0.00000000       0.50000000 </v>
    <v>       0.00000000       0.25000000       0.50000000 </v>
    <v>      -0.25000000       0.25000000       0.50000000 </v>
    <v>       0.50000000       0.00000000       0.50000000 </v>
    <v>       0.00000000       0.50000000       0.50000000 </v>
    <v>       0.50000000       0.50000000       0.50000000 </v>
    <v>       0.25000000       0.25000000       0.50000000 </v>
    <v>      -0.25000000       0.50000000       0.50000000 </v>
    <v>       0.50000000       0.25000000       0.50000000 </v>
   </varray>
   <varray name="weights" >
    <v>       0.01562500 </v>
    <v>       0.03125000 </v>
    <v>       0.03125000 </v>
    <v>       0.03125000 </v>
    <v>       0.01562500 </v>
    <v>       0.01562500 </v>
    <v>       0.01562500 </v>
    <v>       0.03125000 </v>
    <v>       0.03125000 </v>
    <v>       0.03125000 </v>
    <v>       0.03125000 </v>
    <v>       0.03125000 </v>
    <v>       0.03125000 </v>
    <v>       0.03125000 </v>
    <v>       0.03125000 </v>
    <v>       0.03125000 </v>
    <v>       0.03125000 </v>
    <v>       0.03125000 </v>
    <v>       0.03125000 </v>
    <v>       0.03125000 </v>
    <v>       0.03125000 </v>
    <v>       0.03125000 </v>
    <v>       0.03125000 </v>
    <v>       0.03125000 </v>
    <v>       0.03125000 </v>
    <v>       0.03125000 </v>
    <v>       0.01562500 </v>
    <v>       0.03125000 </v>
    <v>       0.03125000 </v>
    <v>       0.03125000 </v>
    <v>       0.01562500 </v>
    <v>       0.01562500 </v>
    <v>       0.01562500 </v>
    <v>       0.03125000 </v>
    <v>       0.03125000 </v>
    <v>       0.03125000 </v>
   </varray>
  </kpoints>
  <scstep>
   <time name="total">    2.39    1.82</time>
   <energy>
    <i name="e_fr_energy">     -0.48315616 </i>
    <i name="e_wo_entrp">     -0.48315616 </i>
    <i name="e_0_energy">     -0.48315616 </i>
   </energy>
  </scstep>
  <scstep>
   <time name="total">    2.45    1.86</time>
   <energy>
    <i name="e_fr_energy">     -0.48537090 </i>
    <i name="e_wo_entrp">     -0.48537090 </i>
    <i name="e_0_energy">     -0.48537090 </i>
   </energy>
  </scstep>
  <scstep>
   <time name="total">    2.47    1.89</time>
   <energy>
    <i name="e_fr_energy">     -0.46517261 </i>
    <i name="e_wo_entrp">     -0.46517261 </i>
    <i name="e_0_energy">     -0.46517261 </i>
   </energy>
  </scstep>
  <scstep>
   <time name="total">    2.48    1.89</time>
   <energy>
    <i name="e_fr_energy">     -0.47601587 </i>
    <i name="e_wo_entrp">     -0.47601587 </i>
    <i name="e_0_energy">     -0.47601587 </i>
   </energy>
  </scstep>
  <scstep>
   <time name="total">    2.50    1.89</time>
   <energy>
    <i name="e_fr_energy">     -0.49374728 </i>
    <i name="e_wo_entrp">     -0.49374728 </i>
    <i name="e_0_energy">     -0.49374728 </i>
   </energy>
  </scstep>
  <scstep>
   <time name="total">    2.44    1.85</time>
   <energy>
    <i name="e_fr_energy">     -0.49666365 </i>
    <i name="e_wo_entrp">     -0.49666365 </i>
    <i name="e_0_energy">     -0.49666365 </i>
   </energy>
  </scstep>
  <scstep>
   <time name="total">    2.49    1.90</time>
   <energy>
    <i name="e_fr_energy">     -0.49690749 </i>
    <i name="e_wo_entrp">     -0.49690749 </i>
    <i name="e_0_energy">     -0.49690749 </i>
   </energy>
  </scstep>
  <scstep>
   <time name="total">    2.48    1.90</time>
   <energy>
    <i name="e_fr_energy">     -0.49713856 </i>
    <i name="e_wo_entrp">     -0.49713856 </i>
    <i name="e_0_energy">     -0.49713856 </i>
   </energy>
  </scstep>
  <scstep>
   <time name="total">    2.49    1.90</time>
   <energy>
    <i name="e_fr_energy">     -0.49720377 </i>
    <i name="e_wo_entrp">     -0.49720377 </i>
    <i name="e_0_energy">     -0.49720377 </i>
   </energy>
  </scstep>
  <scstep>
   <time name="total">    2.54    1.94</time>
   <energy>
    <i name="e_fr_energy">     -0.49719874 </i>
    <i name="e_wo_entrp">     -0.49719874 </i>
    <i name="e_0_energy">     -0.49719874 </i>
   </energy>
  </scstep>
  <scstep>
   <time name="total">    2.59    1.94</time>
   <energy>
    <i name="e_fr_energy">     -0.49719987 </i>
    <i name="e_wo_entrp">     -0.49719987 </i>
    <i name="e_0_energy">     -0.49719987 </i>
   </energy>
  </scstep>
  <scstep>
   <time name="total">    2.47    1.88</time>
   <energy>
    <i name="e_fr_energy">     -0.49719980 </i>
    <i name="e_wo_entrp">     -0.49719980 </i>
    <i name="e_0_energy">     -0.49719980 </i>
   </energy>
  </scstep>
  <scstep>
   <time name="total">    2.46    1.87</time>
   <energy>
    <i name="e_fr_energy">     -0.49719988 </i>
    <i name="e_wo_entrp">     -0.49719988 </i>
    <i name="e_0_energy">     -0.49719988 </i>
   </energy>
  </scstep>
  <scstep>
   <time name="total">    2.57    1.94</time>
   <energy>
    <i name="e_fr_energy">     -0.49719986 </i>
    <i name="e_wo_entrp">     -0.49719986 </i>
    <i name="e_0_energy">     -0.49719986 </i>
   </energy>
  </scstep>
  <kpoints>
   <generation param="Gamma">
    <v type="int" name="divisions">       4        4        4 </v>
    <v name="usershift">      0.00000000       0.00000000       0.00000000 </v>
    <v name="genvec1">      0.25000000       0.00000000       0.00000000 </v>
    <v name="genvec2">      0.00000000       0.25000000       0.00000000 </v>
    <v name="genvec3">      0.00000000       0.00000000       0.25000000 </v>
    <v name="shift">      0.00000000       0.00000000       0.00000000 </v>
   </generation>
   <varray name="kpointlist" >
    <v>       0.00000000       0.00000000       0.00000000 </v>
    <v>       0.25000000       0.00000000       0.00000000 </v>
    <v>       0.00000000       0.25000000       0.00000000 </v>
    <v>      -0.25000000       0.25000000       0.00000000 </v>
    <v>       0.50000000       0.00000000       0.00000000 </v>
    <v>       0.00000000       0.50000000       0.00000000 </v>
    <v>       0.50000000       0.50000000       0.00000000 </v>
    <v>       0.25000000       0.25000000       0.00000000 </v>
    <v>      -0.25000000       0.50000000       0.00000000 </v>
    <v>       0.50000000       0.25000000       0.00000000 </v>
    <v>       0.00000000       0.00000000       0.25000000 </v>
    <v>       0.25000000       0.00000000       0.25000000 </v>
    <v>       0.00000000       0.25000000       0.25000000 </v>
    <v>      -0.25000000       0.25000000       0.25000000 </v>
    <v>      -0.25000000       0.00000000       0.25000000 </v>
    <v>       0.00000000      -0.25000000       0.25000000 </v>
    <v>       0.25000000      -0.25000000       0.25000000 </v>
    <v>       0.50000000       0.00000000       0.25000000 </v>
    <v>       0.00000000       0.50000000       0.25000000 </v>
    <v>       0.50000000       0.50000000       0.25000000 </v>
    <v>       0.25000000       0.25000000       0.25000000 </v>
    <v>      -0.25000000       0.50000000       0.25000000 </v>
    <v>       0.50000000       0.25000000       0.25000000 </v>
    <v>      -0.25000000      -0.25000000       0.25000000 </v>
    <v>       0.25000000       0.50000000       0.25000000 </v>
    <v>       0.50000000      -0.25000000       0.25000000 </v>
    <v>       0.00000000       0.00000000       0.50000000 </v>
    <v>       0.25000000       0.00000000       0.50000000 </v>
    <v>       0.00000000       0.25000000       0.50000000 </v>
    <v>      -0.25000000       0.25000000       0.50000000 </v>
    <v>       0.50000000       0.00000000       0.50000000 </v>
    <v>       0.00000000       0.50000000       0.50000000 </v>
    <v>       0.50000000       0.50000000       0.50000000 </v>
    <v>       0.25000000       0.25000000       0.50000000 </v>
    <v>      -0.25000000       0.50000000       0.50000000 </v>
    <v>       0.50000000       0.25000000       0.50000000 </v>
   </varray>
   <varray name="weights" >
    <v>       0.01562500 </v>
    <v>       0.03125000 </v>
    <v>       0.03125000 </v>
    <v>       0.03125000 </v>
    <v>       0.01562500 </v>
    <v>       0.01562500 </v>
    <v>       0.01562500 </v>
    <v>       0.03125000 </v>
    <v>       0.03125000 </v>
    <v>       0.03125000 </v>
    <v>       0.03125000 </v>
    <v>       0.03125000 </v>
    <v>       0.03125000 </v>
    <v>       0.03125000 </v>
    <v>       0.03125000 </v>
    <v>       0.03125000 </v>
    <v>       0.03125000 </v>
    <v>       0.03125000 </v>
    <v>       0.03125000 </v>
    <v>       0.03125000 </v>
    <v>       0.03125000 </v>
    <v>       0.03125000 </v>
    <v>       0.03125000 </v>
    <v>       0.03125000 </v>
    <v>       0.03125000 </v>
    <v>       0.03125000 </v>
    <v>       0.01562500 </v>
    <v>       0.03125000 </v>
    <v>       0.03125000 </v>
    <v>       0.03125000 </v>
    <v>       0.01562500 </v>
    <v>       0.01562500 </v>
    <v>       0.01562500 </v>
    <v>       0.03125000 </v>
    <v>       0.03125000 </v>
    <v>       0.03125000 </v>
   </varray>
  </kpoints>
  <scstep>
   <time name="total">    2.39    1.82</time>
   <energy>
    <i name="e_fr_energy">     -0.48761266 </i>
    <i name="e_wo_entrp">     -0.48761266 </i>
    <i name="e_0_energy">     -0.48761266 </i>
   </energy>
  </scstep>
  <scstep>
   <time name="total">    2.48    1.86</time>
   <energy>
    <i name="e_fr_energy">     -0.48965630 </i>
    <i name="e_wo_entrp">     -0.48965630 </i>
    <i name="e_0_energy">     -0.48965630 </i>
   </energy>
  </scstep>
  <scstep>
   <time name="total">    2.48    1.89</time>
   <energy>
    <i name="e_fr_energy">     -0.47548143 </i>
    <i name="e_wo_entrp">     -0.47548143 </i>
    <i name="e_0_energy">     -0.47548143 </i>
   </energy>
  </scstep>
  <scstep>
   <time name="total">    2.47    1.87</time>
   <energy>
    <i name="e_fr_energy">     -0.48771807 </i>
    <i name="e_wo_entrp">     -0.48771807 </i>
    <i name="e_0_energy">     -0.48771807 </i>
   </energy>
  </scstep>
  <scstep>
   <time name="total">    2.49    1.89</time>
   <energy>
    <i name="e_fr_energy">     -0.50391650 </i>
    <i name="e_wo_entrp">     -0.50391650 </i>
    <i name="e_0_energy">     -0.50391650 </i>
   </energy>
  </scstep>
  <scstep>
   <time name="total">    2.42    1.83</time>
   <energy>
    <i name="e_fr_energy">     -0.50677321 </i>
    <i name="e_wo_entrp">     -0.50677321 </i>
    <i name="e_0_energy">     -0.50677321 </i>
   </energy>
  </scstep>
  <scstep>
   <time name="total">    2.48    1.89</time>
   <energy>
    <i name="e_fr_energy">     -0.50696941 </i>
    <i name="e_wo_entrp">     -0.50696941 </i>
    <i name="e_0_energy">     -0.50696941 </i>
   </energy>
  </scstep>
  <scstep>
   <time name="total">    2.47    1.88</time>
   <energy>
    <i name="e_fr_energy">     -0.50722294 </i>
    <i name="e_wo_entrp">     -0.50722294 </i>
    <i name="e_0_energy">     -0.50722294 </i>
   </energy>
  </scstep>
  <scstep>
   <time name="total">    2.49    1.90</time>
   <energy>
    <i name="e_fr_energy">     -0.50725278 </i>
    <i name="e_wo_entrp">     -0.50725278 </i>
    <i name="e_0_energy">     -0.50725278 </i>
   </energy>
  </scstep>
  <scstep>
   <time name="total">    2.51    1.92</time>
   <energy>
    <i name="e_fr_energy">     -0.50725123 </i>
    <i name="e_wo_entrp">     -0.50725123 </i>
    <i name="e_0_energy">     -0.50725123 </i>
   </energy>
  </scstep>
  <scstep>
   <time name="total">    2.55    1.96</time>
   <energy>
    <i name="e_fr_energy">     -0.50724900 </i>
    <i name="e_wo_entrp">     -0.50724900 </i>
    <i name="e_0_energy">     -0.50724900 </i>
   </energy>
  </scstep>
  <scstep>
   <time name="total">    2.47    1.87</time>
   <energy>
    <i name="e_fr_energy">     -0.50724940 </i>
    <i name="e_wo_entrp">     -0.50724940 </i>
    <i name="e_0_energy">     -0.50724940 </i>
   </energy>
  </scstep>
  <scstep>
   <time name="total">    2.50    1.91</time>
   <energy>
    <i name="e_fr_energy">     -0.50724932 </i>
    <i name="e_wo_entrp">     -0.50724932 </i>
    <i name="e_0_energy">     -0.50724932 </i>
   </energy>
  </scstep>
  <scstep>
   <time name="total">    2.53    1.89</time>
   <energy>
    <i name="e_fr_energy">     -0.50724937 </i>
    <i name="e_wo_entrp">     -0.50724937 </i>
    <i name="e_0_energy">     -0.50724937 </i>
   </energy>
  </scstep>
  <kpoints>
   <generation param="Gamma">
    <v type="int" name="divisions">       4        4        4 </v>
    <v name="usershift">      0.00000000       0.00000000       0.00000000 </v>
    <v name="genvec1">      0.25000000       0.00000000       0.00000000 </v>
    <v name="genvec2">      0.00000000       0.25000000       0.00000000 </v>
    <v name="genvec3">      0.00000000       0.00000000       0.25000000 </v>
    <v name="shift">      0.00000000       0.00000000       0.00000000 </v>
   </generation>
   <varray name="kpointlist" >
    <v>       0.00000000       0.00000000       0.00000000 </v>
    <v>       0.25000000       0.00000000       0.00000000 </v>
    <v>       0.00000000       0.25000000       0.00000000 </v>
    <v>      -0.25000000       0.25000000       0.00000000 </v>
    <v>       0.50000000       0.00000000       0.00000000 </v>
    <v>       0.00000000       0.50000000       0.00000000 </v>
    <v>       0.50000000       0.50000000       0.00000000 </v>
    <v>       0.25000000       0.25000000       0.00000000 </v>
    <v>      -0.25000000       0.50000000       0.00000000 </v>
    <v>       0.50000000       0.25000000       0.00000000 </v>
    <v>       0.00000000       0.00000000       0.25000000 </v>
    <v>       0.25000000       0.00000000       0.25000000 </v>
    <v>       0.00000000       0.25000000       0.25000000 </v>
    <v>      -0.25000000       0.25000000       0.25000000 </v>
    <v>      -0.25000000       0.00000000       0.25000000 </v>
    <v>       0.00000000      -0.25000000       0.25000000 </v>
    <v>       0.25000000      -0.25000000       0.25000000 </v>
    <v>       0.50000000       0.00000000       0.25000000 </v>
    <v>       0.00000000       0.50000000       0.25000000 </v>
    <v>       0.50000000       0.50000000       0.25000000 </v>
    <v>       0.25000000       0.25000000       0.25000000 </v>
    <v>      -0.25000000       0.50000000       0.25000000 </v>
    <v>       0.50000000       0.25000000       0.25000000 </v>
    <v>      -0.25000000      -0.25000000       0.25000000 </v>
    <v>       0.25000000       0.50000000       0.25000000 </v>
    <v>       0.50000000      -0.25000000       0.25000000 </v>
    <v>       0.00000000       0.00000000       0.50000000 </v>
    <v>       0.25000000       0.00000000       0.50000000 </v>
    <v>       0.00000000       0.25000000       0.50000000 </v>
    <v>      -0.25000000       0.25000000       0.50000000 </v>
    <v>       0.50000000       0.00000000       0.50000000 </v>
    <v>       0.00000000       0.50000000       0.50000000 </v>
    <v>       0.50000000       0.50000000       0.50000000 </v>
    <v>       0.25000000       0.25000000       0.50000000 </v>
    <v>      -0.25000000       0.50000000       0.50000000 </v>
    <v>       0.50000000       0.25000000       0.50000000 </v>
   </varray>
   <varray name="weights" >
    <v>       0.01562500 </v>
    <v>       0.03125000 </v>
    <v>       0.03125000 </v>
    <v>       0.03125000 </v>
    <v>       0.01562500 </v>
    <v>       0.01562500 </v>
    <v>       0.01562500 </v>
    <v>       0.03125000 </v>
    <v>       0.03125000 </v>
    <v>       0.03125000 </v>
    <v>       0.03125000 </v>
    <v>       0.03125000 </v>
    <v>       0.03125000 </v>
    <v>       0.03125000 </v>
    <v>       0.03125000 </v>
    <v>       0.03125000 </v>
    <v>       0.03125000 </v>
    <v>       0.03125000 </v>
    <v>       0.03125000 </v>
    <v>       0.03125000 </v>
    <v>       0.03125000 </v>
    <v>       0.03125000 </v>
    <v>       0.03125000 </v>
    <v>       0.03125000 </v>
    <v>       0.03125000 </v>
    <v>       0.03125000 </v>
    <v>       0.01562500 </v>
    <v>       0.03125000 </v>
    <v>       0.03125000 </v>
    <v>       0.03125000 </v>
    <v>       0.01562500 </v>
    <v>       0.01562500 </v>
    <v>       0.01562500 </v>
    <v>       0.03125000 </v>
    <v>       0.03125000 </v>
    <v>       0.03125000 </v>
   </varray>
  </kpoints>
  <varray name="dielectric_dft" >
   <v>       2.48082611      -0.00001188      -0.00010934 </v>
   <v>      -0.00000864       2.48082256      -0.00000189 </v>
   <v>      -0.00011042      -0.00000320       2.51334576 </v>
  </varray>
  <varray name="epsilon" >
   <v>       2.48082611      -0.00001188      -0.00010934 </v>
   <v>      -0.00000864       2.48082256      -0.00000189 </v>
   <v>      -0.00011042      -0.00000320       2.51334576 </v>
  </varray>
  <kpoints>
   <generation param="Gamma">
    <v type="int" name="divisions">       4        4        4 </v>
    <v name="usershift">      0.00000000       0.00000000       0.00000000 </v>
    <v name="genvec1">      0.25000000       0.00000000       0.00000000 </v>
    <v name="genvec2">      0.00000000       0.25000000       0.00000000 </v>
    <v name="genvec3">      0.00000000       0.00000000       0.25000000 </v>
    <v name="shift">      0.00000000       0.00000000       0.00000000 </v>
   </generation>
   <varray name="kpointlist" >
    <v>       0.00000000       0.00000000       0.00000000 </v>
    <v>       0.25000000       0.00000000       0.00000000 </v>
    <v>       0.00000000       0.25000000       0.00000000 </v>
    <v>      -0.25000000       0.25000000       0.00000000 </v>
    <v>       0.50000000       0.00000000       0.00000000 </v>
    <v>       0.00000000       0.50000000       0.00000000 </v>
    <v>       0.50000000       0.50000000       0.00000000 </v>
    <v>       0.25000000       0.25000000       0.00000000 </v>
    <v>      -0.25000000       0.50000000       0.00000000 </v>
    <v>       0.50000000       0.25000000       0.00000000 </v>
    <v>       0.00000000       0.00000000       0.25000000 </v>
    <v>       0.25000000       0.00000000       0.25000000 </v>
    <v>       0.00000000       0.25000000       0.25000000 </v>
    <v>      -0.25000000       0.25000000       0.25000000 </v>
    <v>      -0.25000000       0.00000000       0.25000000 </v>
    <v>       0.00000000      -0.25000000       0.25000000 </v>
    <v>       0.25000000      -0.25000000       0.25000000 </v>
    <v>       0.50000000       0.00000000       0.25000000 </v>
    <v>       0.00000000       0.50000000       0.25000000 </v>
    <v>       0.50000000       0.50000000       0.25000000 </v>
    <v>       0.25000000       0.25000000       0.25000000 </v>
    <v>      -0.25000000       0.50000000       0.25000000 </v>
    <v>       0.50000000       0.25000000       0.25000000 </v>
    <v>      -0.25000000      -0.25000000       0.25000000 </v>
    <v>       0.25000000       0.50000000       0.25000000 </v>
    <v>       0.50000000      -0.25000000       0.25000000 </v>
    <v>       0.00000000       0.00000000       0.50000000 </v>
    <v>       0.25000000       0.00000000       0.50000000 </v>
    <v>       0.00000000       0.25000000       0.50000000 </v>
    <v>      -0.25000000       0.25000000       0.50000000 </v>
    <v>       0.50000000       0.00000000       0.50000000 </v>
    <v>       0.00000000       0.50000000       0.50000000 </v>
    <v>       0.50000000       0.50000000       0.50000000 </v>
    <v>       0.25000000       0.25000000       0.50000000 </v>
    <v>      -0.25000000       0.50000000       0.50000000 </v>
    <v>       0.50000000       0.25000000       0.50000000 </v>
   </varray>
   <varray name="weights" >
    <v>       0.01562500 </v>
    <v>       0.03125000 </v>
    <v>       0.03125000 </v>
    <v>       0.03125000 </v>
    <v>       0.01562500 </v>
    <v>       0.01562500 </v>
    <v>       0.01562500 </v>
    <v>       0.03125000 </v>
    <v>       0.03125000 </v>
    <v>       0.03125000 </v>
    <v>       0.03125000 </v>
    <v>       0.03125000 </v>
    <v>       0.03125000 </v>
    <v>       0.03125000 </v>
    <v>       0.03125000 </v>
    <v>       0.03125000 </v>
    <v>       0.03125000 </v>
    <v>       0.03125000 </v>
    <v>       0.03125000 </v>
    <v>       0.03125000 </v>
    <v>       0.03125000 </v>
    <v>       0.03125000 </v>
    <v>       0.03125000 </v>
    <v>       0.03125000 </v>
    <v>       0.03125000 </v>
    <v>       0.03125000 </v>
    <v>       0.01562500 </v>
    <v>       0.03125000 </v>
    <v>       0.03125000 </v>
    <v>       0.03125000 </v>
    <v>       0.01562500 </v>
    <v>       0.01562500 </v>
    <v>       0.01562500 </v>
    <v>       0.03125000 </v>
    <v>       0.03125000 </v>
    <v>       0.03125000 </v>
   </varray>
  </kpoints>
  <array name="born_charges" >
   <dimension dim="1">ion</dimension>
   <set>
    <v>       2.98056878      -0.00071568       0.00017505 </v>
    <v>       0.00119798       3.62049721      -0.32135510 </v>
    <v>       0.00021051       0.27803321       3.42529994 </v>
   </set>
   <set>
    <v>       3.46032498       0.27707121       0.27832006 </v>
    <v>       0.27635873       3.14098863       0.16051116 </v>
    <v>      -0.24107956      -0.13933689       3.42409345 </v>
   </set>
   <set>
    <v>       3.46069726      -0.27713104      -0.27838780 </v>
    <v>      -0.27786261       3.14006715       0.16079029 </v>
    <v>       0.24051265      -0.13875342       3.42650856 </v>
   </set>
   <set>
    <v>      -1.31125280      -0.49332690      -0.31007599 </v>
    <v>      -0.43608652      -1.98904090      -0.67838382 </v>
    <v>      -0.24333057      -0.72123918      -1.71193960 </v>
   </set>
   <set>
    <v>      -2.22269955      -0.08972647       0.74309931 </v>
    <v>      -0.03266318      -1.07826316       0.07103550 </v>
    <v>       0.74666972       0.14973572      -1.71269796 </v>
   </set>
   <set>
    <v>      -1.41731737       0.49769747      -0.43308747 </v>
    <v>       0.55473486      -1.88326363       0.60848746 </v>
    <v>      -0.50316520       0.57186248      -1.71328411 </v>
   </set>
   <set>
    <v>      -1.31099282       0.49331953       0.31034470 </v>
    <v>       0.43615697      -1.98968394      -0.67960886 </v>
    <v>       0.24375238      -0.72172560      -1.71334428 </v>
   </set>
   <set>
    <v>      -2.22191079       0.09014862      -0.74316767 </v>
    <v>       0.03276586      -1.07822540       0.07066182 </v>
    <v>      -0.74647287       0.14998050      -1.71265699 </v>
   </set>
   <set>
    <v>      -1.41741769      -0.49733675       0.43277980 </v>
    <v>      -0.55460209      -1.88307595       0.60786157 </v>
    <v>       0.50290295       0.57144318      -1.71197901 </v>
   </set>
  </array>
  <time name="totalsc">  460.70  250.54</time>
  <eigenvalues>
   <array>
    <dimension dim="1">band</dimension>
    <dimension dim="2">kpoint</dimension>
    <dimension dim="3">spin</dimension>
    <field>eigene</field>
    <field>occ</field>
    <set>
     <set comment="spin 1">
      <set comment="kpoint 1">
       <r>  -18.1719    1.0000 </r>
       <r>  -16.6202    1.0000 </r>
       <r>  -16.6199    1.0000 </r>
       <r>  -15.9516    1.0000 </r>
       <r>  -15.9434    1.0000 </r>
       <r>  -15.9412    1.0000 </r>
       <r>   -6.8797    1.0000 </r>
       <r>   -6.8781    1.0000 </r>
       <r>   -4.1465    1.0000 </r>
       <r>   -4.0639    1.0000 </r>
       <r>   -3.9119    1.0000 </r>
       <r>   -3.9104    1.0000 </r>
       <r>   -1.6861    1.0000 </r>
       <r>   -1.6851    1.0000 </r>
       <r>   -1.3748    1.0000 </r>
[...]
       <r>    1.1191    1.0000 </r>
       <r>   10.2244    0.0000 </r>
       <r>   10.7267    0.0000 </r>
       <r>   11.0150    0.0000 </r>
       <r>   11.1987    0.0000 </r>
       <r>   11.5422    0.0000 </r>
      </set>
      <set comment="kpoint 34">
       <r>  -17.5751    1.0000 </r>
       <r>  -17.1862    1.0000 </r>
       <r>  -16.6523    1.0000 </r>
       <r>  -16.0617    1.0000 </r>
       <r>  -15.9932    1.0000 </r>
       <r>  -15.9920    1.0000 </r>
       <r>   -6.8568    1.0000 </r>
       <r>   -5.8704    1.0000 </r>
       <r>   -5.1561    1.0000 </r>
       <r>   -3.8985    1.0000 </r>
       <r>   -3.7939    1.0000 </r>
       <r>   -3.6156    1.0000 </r>
       <r>   -1.9743    1.0000 </r>
       <r>   -1.7473    1.0000 </r>
       <r>   -1.2647    1.0000 </r>
       <r>   -0.9005    1.0000 </r>
       <r>   -0.6220    1.0000 </r>
       <r>   -0.4225    1.0000 </r>
       <r>    0.1500    1.0000 </r>
       <r>    0.2560    1.0000 </r>
       <r>    0.3283    1.0000 </r>
       <r>    0.5713    1.0000 </r>
       <r>    0.7171    1.0000 </r>
       <r>    0.9241    1.0000 </r>
       <r>   10.1782    0.0000 </r>
       <r>   10.6521    0.0000 </r>
       <r>   10.9625    0.0000 </r>
       <r>   11.3035    0.0000 </r>
       <r>   11.7199    0.0000 </r>
      </set>
      <set comment="kpoint 35">
       <r>  -17.5753    1.0000 </r>
       <r>  -17.1857    1.0000 </r>
       <r>  -16.6524    1.0000 </r>
       <r>  -16.0617    1.0000 </r>
       <r>  -15.9936    1.0000 </r>
       <r>  -15.9921    1.0000 </r>
       <r>   -6.8564    1.0000 </r>
       <r>   -5.8698    1.0000 </r>
       <r>   -5.1562    1.0000 </r>
       <r>   -3.8972    1.0000 </r>
       <r>   -3.7961    1.0000 </r>
       <r>   -3.6155    1.0000 </r>
       <r>   -1.9735    1.0000 </r>
       <r>   -1.7464    1.0000 </r>
       <r>   -1.2647    1.0000 </r>
       <r>   -0.9001    1.0000 </r>
       <r>   -0.6228    1.0000 </r>
       <r>   -0.4219    1.0000 </r>
       <r>    0.1487    1.0000 </r>
       <r>    0.2555    1.0000 </r>
       <r>    0.3285    1.0000 </r>
       <r>    0.5711    1.0000 </r>
       <r>    0.7158    1.0000 </r>
       <r>    0.9241    1.0000 </r>
       <r>   10.1759    0.0000 </r>
       <r>   10.6500    0.0000 </r>
       <r>   10.9641    0.0000 </r>
       <r>   11.3063    0.0000 </r>
       <r>   11.7257    0.0000 </r>
      </set>
      <set comment="kpoint 36">
       <r>  -17.5752    1.0000 </r>
       <r>  -17.1860    1.0000 </r>
       <r>  -16.6523    1.0000 </r>
       <r>  -16.0617    1.0000 </r>
       <r>  -15.9937    1.0000 </r>
       <r>  -15.9917    1.0000 </r>
       <r>   -6.8566    1.0000 </r>
       <r>   -5.8701    1.0000 </r>
       <r>   -5.1562    1.0000 </r>
       <r>   -3.8978    1.0000 </r>
       <r>   -3.7950    1.0000 </r>
       <r>   -3.6155    1.0000 </r>
       <r>   -1.9739    1.0000 </r>
       <r>   -1.7469    1.0000 </r>
       <r>   -1.2647    1.0000 </r>
       <r>   -0.9003    1.0000 </r>
       <r>   -0.6224    1.0000 </r>
       <r>   -0.4222    1.0000 </r>
       <r>    0.1493    1.0000 </r>
       <r>    0.2557    1.0000 </r>
       <r>    0.3284    1.0000 </r>
       <r>    0.5712    1.0000 </r>
       <r>    0.7165    1.0000 </r>
       <r>    0.9241    1.0000 </r>
       <r>   10.1771    0.0000 </r>
       <r>   10.6510    0.0000 </r>
       <r>   10.9633    0.0000 </r>
       <r>   11.3049    0.0000 </r>
       <r>   11.7232    0.0000 </r>
      </set>
     </set>
    </set>
   </array>
  </eigenvalues>
  <separator name="orbital magnetization" >
   <v name="MAGDIPOLOUT">      0.00000000      0.00000000      0.00000000</v>
  </separator>
  <dos>
   <i name="efermi">      1.78473687 </i>
   <total>
    <array>
     <dimension dim="1">gridpoints</dimension>
     <dimension dim="2">spin</dimension>
     <field>energy</field>
     <field>total</field>
     <field>integrated</field>
     <set>
      <set comment="spin 1">
       <r>   -19.6805     0.0000     0.0000 </r>
       <r>   -19.5699     0.0000     0.0000 </r>
       <r>   -19.4592     0.0000     0.0000 </r>
       <r>   -19.3486     0.0000     0.0000 </r>
       <r>   -19.2380     0.0000     0.0000 </r>
       <r>   -19.1274     0.0000     0.0000 </r>
       <r>   -19.0167     0.0000     0.0000 </r>
       <r>   -18.9061     0.0000     0.0000 </r>
       <r>   -18.7955     0.0000     0.0000 </r>
       <r>   -18.6848     0.0000     0.0000 </r>
       <r>   -18.5742     0.0000     0.0000 </r>
       <r>   -18.4636     0.0000     0.0000 </r>
       <r>   -18.3530     0.0015     0.0002 </r>
       <r>   -18.2423     0.0455     0.0052 </r>
       <r>   -18.1317     0.2561     0.0335 </r>
       <r>   -18.0211     0.9593     0.1396 </r>
       <r>   -17.9105     2.1805     0.3809 </r>
       <r>   -17.7998     2.2490     0.6297 </r>
       <r>   -17.6892     3.1560     0.9788 </r>
       <r>   -17.5786     6.7082     1.7209 </r>
       <r>   -17.4679     3.7419     2.1349 </r>
       <r>   -17.3573     0.7676     2.2198 </r>
       <r>   -17.2467     1.6676     2.4043 </r>
       <r>   -17.1361     7.3339     3.2156 </r>
       <r>   -17.0254     4.7010     3.7357 </r>
       <r>   -16.9148     0.5607     3.7977 </r>
       <r>   -16.8042     0.9820     3.9063 </r>
       <r>   -16.6935     2.7465     4.2102 </r>
       <r>   -16.5829     6.4601     4.9249 </r>
       <r>   -16.4723     3.7468     5.3394 </r>
       <r>   -16.3617     1.9948     5.5600 </r>
       <r>   -16.2510     2.2038     5.8038 </r>
       <r>   -16.1404     3.0161     6.1375 </r>
       <r>   -16.0298    16.1073     7.9194 </r>
       <r>   -15.9192    27.1224    10.9199 </r>
       <r>   -15.8085     9.2278    11.9408 </r>
       <r>   -15.6979     0.5314    11.9995 </r>
       <r>   -15.5873     0.0042    12.0000 </r>
       <r>   -15.4766     0.0000    12.0000 </r>
       <r>   -15.3660     0.0000    12.0000 </r>
       <r>   -15.2554     0.0000    12.0000 </r>
       <r>   -15.1448     0.0000    12.0000 </r>
       <r>   -15.0341     0.0000    12.0000 </r>
       <r>   -14.9235     0.0000    12.0000 </r>
       <r>   -14.8129     0.0000    12.0000 </r>
       <r>   -14.7022     0.0000    12.0000 </r>
       <r>   -14.5916     0.0000    12.0000 </r>
       <r>   -14.4810     0.0000    12.0000 </r>
       <r>   -14.3704     0.0000    12.0000 </r>
       <r>   -14.2597     0.0000    12.0000 </r>
       <r>   -14.1491     0.0000    12.0000 </r>
       <r>   -14.0385     0.0000    12.0000 </r>
       <r>   -13.9279     0.0000    12.0000 </r>
       <r>   -13.8172     0.0000    12.0000 </r>
       <r>   -13.7066     0.0000    12.0000 </r>
       <r>   -13.5960     0.0000    12.0000 </r>
       <r>   -13.4853     0.0000    12.0000 </r>
       <r>   -13.3747     0.0000    12.0000 </r>
       <r>   -13.2641     0.0000    12.0000 </r>
       <r>   -13.1535     0.0000    12.0000 </r>
       <r>   -13.0428     0.0000    12.0000 </r>
       <r>   -12.9322     0.0000    12.0000 </r>
       <r>   -12.8216     0.0000    12.0000 </r>
       <r>   -12.7109     0.0000    12.0000 </r>
       <r>   -12.6003     0.0000    12.0000 </r>
       <r>   -12.4897     0.0000    12.0000 </r>
       <r>   -12.3791     0.0000    12.0000 </r>
       <r>   -12.2684     0.0000    12.0000 </r>
       <r>   -12.1578     0.0000    12.0000 </r>
       <r>   -12.0472     0.0000    12.0000 </r>
       <r>   -11.9366     0.0000    12.0000 </r>
       <r>   -11.8259     0.0000    12.0000 </r>
       <r>   -11.7153     0.0000    12.0000 </r>
       <r>   -11.6047     0.0000    12.0000 </r>
       <r>   -11.4940     0.0000    12.0000 </r>
       <r>   -11.3834     0.0000    12.0000 </r>
       <r>   -11.2728     0.0000    12.0000 </r>
       <r>   -11.1622     0.0000    12.0000 </r>
       <r>   -11.0515     0.0000    12.0000 </r>
       <r>   -10.9409     0.0000    12.0000 </r>
       <r>   -10.8303     0.0000    12.0000 </r>
       <r>   -10.7197     0.0000    12.0000 </r>
       <r>   -10.6090     0.0000    12.0000 </r>
       <r>   -10.4984     0.0000    12.0000 </r>
       <r>   -10.3878     0.0000    12.0000 </r>
       <r>   -10.2771     0.0000    12.0000 </r>
       <r>   -10.1665     0.0000    12.0000 </r>
       <r>   -10.0559     0.0000    12.0000 </r>
       <r>    -9.9453     0.0000    12.0000 </r>
       <r>    -9.8346     0.0000    12.0000 </r>
       <r>    -9.7240     0.0000    12.0000 </r>
       <r>    -9.6134     0.0000    12.0000 </r>
       <r>    -9.5027     0.0000    12.0000 </r>
       <r>    -9.3921     0.0000    12.0000 </r>
       <r>    -9.2815     0.0000    12.0000 </r>
       <r>    -9.1709     0.0000    12.0000 </r>
       <r>    -9.0602     0.0000    12.0000 </r>
       <r>    -8.9496     0.0000    12.0000 </r>
       <r>    -8.8390     0.0000    12.0000 </r>
       <r>    -8.7284     0.0000    12.0000 </r>
       <r>    -8.6177     0.0000    12.0000 </r>
       <r>    -8.5071     0.0000    12.0000 </r>
       <r>    -8.3965     0.0000    12.0000 </r>
       <r>    -8.2858     0.0000    12.0000 </r>
       <r>    -8.1752     0.0001    12.0000 </r>
       <r>    -8.0646     0.0118    12.0013 </r>
       <r>    -7.9540     0.1113    12.0136 </r>
       <r>    -7.8433     0.1385    12.0290 </r>
       <r>    -7.7327     0.0941    12.0394 </r>
       <r>    -7.6221     0.4180    12.0856 </r>
       <r>    -7.5114     0.9761    12.1936 </r>
       <r>    -7.4008     1.2325    12.3300 </r>
       <r>    -7.2902     1.9619    12.5470 </r>
       <r>    -7.1796     1.0252    12.6604 </r>
       <r>    -7.0689     1.3979    12.8151 </r>
       <r>    -6.9583     4.6301    13.3273 </r>
       <r>    -6.8477     4.7415    13.8518 </r>
       <r>    -6.7371     1.5069    14.0185 </r>
       <r>    -6.6264     0.1962    14.0402 </r>
       <r>    -6.5158     0.7032    14.1180 </r>
       <r>    -6.4052     0.7908    14.2055 </r>
       <r>    -6.2945     0.1178    14.2185 </r>
       <r>    -6.1839     0.0261    14.2214 </r>
       <r>    -6.0733     0.5299    14.2801 </r>
       <r>    -5.9627     3.4362    14.6602 </r>
       <r>    -5.8520     6.9586    15.4300 </r>
       <r>    -5.7414     2.9720    15.7588 </r>
       <r>    -5.6308     0.2013    15.7811 </r>
       <r>    -5.5201     0.0177    15.7830 </r>
       <r>    -5.4095     0.3524    15.8220 </r>
       <r>    -5.2989     0.9961    15.9322 </r>
       <r>    -5.1883     0.9268    16.0348 </r>
       <r>    -5.0776     2.1983    16.2779 </r>
       <r>    -4.9670     3.8984    16.7092 </r>
       <r>    -4.8564     2.9732    17.0381 </r>
       <r>    -4.7458     1.8742    17.2455 </r>
       <r>    -4.6351     1.8027    17.4449 </r>
       <r>    -4.5245     1.9937    17.6655 </r>
       <r>    -4.4139     0.6195    17.7340 </r>
       <r>    -4.3032     0.7501    17.8170 </r>
       <r>    -4.1926     3.0938    18.1592 </r>
       <r>    -4.0820     8.8746    19.1410 </r>
       <r>    -3.9714     9.6775    20.2116 </r>
       <r>    -3.8607     6.6542    20.9478 </r>
       <r>    -3.7501     6.7688    21.6966 </r>
       <r>    -3.6395     5.6617    22.3229 </r>
       <r>    -3.5289     5.6948    22.9529 </r>
       <r>    -3.4182     5.0877    23.5158 </r>
       <r>    -3.3076     2.6631    23.8104 </r>
       <r>    -3.1970     1.4512    23.9709 </r>
       <r>    -3.0863     0.2570    23.9994 </r>
       <r>    -2.9757     0.0059    24.0000 </r>
       <r>    -2.8651     0.0000    24.0000 </r>
       <r>    -2.7545     0.0000    24.0000 </r>
       <r>    -2.6438     0.0000    24.0000 </r>
       <r>    -2.5332     0.0000    24.0000 </r>
       <r>    -2.4226     0.0000    24.0000 </r>
       <r>    -2.3119     0.0000    24.0000 </r>
       <r>    -2.2013     0.0015    24.0002 </r>
       <r>    -2.0907     0.1633    24.0182 </r>
       <r>    -1.9801     2.6325    24.3095 </r>
       <r>    -1.8694     7.9581    25.1899 </r>
       <r>    -1.7588     8.1301    26.0893 </r>
       <r>    -1.6482     6.8188    26.8436 </r>
       <r>    -1.5376     5.3451    27.4349 </r>
       <r>    -1.4269     6.3682    28.1394 </r>
       <r>    -1.3163     8.4967    29.0794 </r>
       <r>    -1.2057     5.9433    29.7369 </r>
       <r>    -1.0950     3.8885    30.1671 </r>
       <r>    -0.9844     4.8512    30.7038 </r>
       <r>    -0.8738     8.3944    31.6324 </r>
       <r>    -0.7632     6.9375    32.3999 </r>
       <r>    -0.6525     7.3768    33.2160 </r>
       <r>    -0.5419     6.3231    33.9155 </r>
       <r>    -0.4313     6.2617    34.6082 </r>
       <r>    -0.3206     5.9516    35.2666 </r>
       <r>    -0.2100     8.0557    36.1578 </r>
       <r>    -0.0994     9.8400    37.2464 </r>
       <r>     0.0112     8.1693    38.1501 </r>
       <r>     0.1219     8.9418    39.1393 </r>
       <r>     0.2325     9.4933    40.1895 </r>
       <r>     0.3431    10.6980    41.3730 </r>
       <r>     0.4537     8.7390    42.3398 </r>
       <r>     0.5644     5.7928    42.9807 </r>
       <r>     0.6750     6.2835    43.6758 </r>
       <r>     0.7856     5.2741    44.2592 </r>
       <r>     0.8963     6.6554    44.9955 </r>
       <r>     1.0069     6.7050    45.7373 </r>
       <r>     1.1175     7.8307    46.6036 </r>
       <r>     1.2281     8.2987    47.5216 </r>
       <r>     1.3388     3.7680    47.9385 </r>
       <r>     1.4494     0.5429    47.9985 </r>
       <r>     1.5600     0.0133    48.0000 </r>
       <r>     1.6707     0.0000    48.0000 </r>
       <r>     1.7813     0.0000    48.0000 </r>
       <r>     1.8919     0.0000    48.0000 </r>
       <r>     2.0025     0.0000    48.0000 </r>
       <r>     2.1132     0.0000    48.0000 </r>
       <r>     2.2238     0.0000    48.0000 </r>
       <r>     2.3344     0.0000    48.0000 </r>
       <r>     2.4450     0.0000    48.0000 </r>
       <r>     2.5557     0.0000    48.0000 </r>
       <r>     2.6663     0.0000    48.0000 </r>
       <r>     2.7769     0.0000    48.0000 </r>
       <r>     2.8876     0.0000    48.0000 </r>
       <r>     2.9982     0.0000    48.0000 </r>
       <r>     3.1088     0.0000    48.0000 </r>
       <r>     3.2194     0.0000    48.0000 </r>
       <r>     3.3301     0.0000    48.0000 </r>
       <r>     3.4407     0.0000    48.0000 </r>
       <r>     3.5513     0.0000    48.0000 </r>
       <r>     3.6620     0.0000    48.0000 </r>
       <r>     3.7726     0.0000    48.0000 </r>
       <r>     3.8832     0.0000    48.0000 </r>
       <r>     3.9938     0.0000    48.0000 </r>
       <r>     4.1045     0.0000    48.0000 </r>
       <r>     4.2151     0.0000    48.0000 </r>
       <r>     4.3257     0.0000    48.0000 </r>
       <r>     4.4363     0.0000    48.0000 </r>
       <r>     4.5470     0.0000    48.0000 </r>
       <r>     4.6576     0.0000    48.0000 </r>
       <r>     4.7682     0.0000    48.0000 </r>
       <r>     4.8789     0.0000    48.0000 </r>
       <r>     4.9895     0.0000    48.0000 </r>
       <r>     5.1001     0.0000    48.0000 </r>
       <r>     5.2107     0.0000    48.0000 </r>
       <r>     5.3214     0.0000    48.0000 </r>
       <r>     5.4320     0.0000    48.0000 </r>
       <r>     5.5426     0.0000    48.0000 </r>
       <r>     5.6532     0.0000    48.0000 </r>
       <r>     5.7639     0.0000    48.0000 </r>
       <r>     5.8745     0.0000    48.0000 </r>
       <r>     5.9851     0.0000    48.0000 </r>
       <r>     6.0958     0.0000    48.0000 </r>
       <r>     6.2064     0.0000    48.0000 </r>
       <r>     6.3170     0.0000    48.0000 </r>
       <r>     6.4276     0.0000    48.0000 </r>
       <r>     6.5383     0.0000    48.0000 </r>
       <r>     6.6489     0.0000    48.0000 </r>
       <r>     6.7595     0.0000    48.0000 </r>
       <r>     6.8702     0.0000    48.0000 </r>
       <r>     6.9808     0.0000    48.0000 </r>
       <r>     7.0914     0.0001    48.0000 </r>
       <r>     7.2020     0.0120    48.0013 </r>
       <r>     7.3127     0.1119    48.0137 </r>
       <r>     7.4233     0.1361    48.0288 </r>
       <r>     7.5339     0.0219    48.0312 </r>
       <r>     7.6445     0.0004    48.0313 </r>
       <r>     7.7552     0.0030    48.0316 </r>
       <r>     7.8658     0.0878    48.0413 </r>
       <r>     7.9764     0.3143    48.0761 </r>
       <r>     8.0871     0.1837    48.0964 </r>
       <r>     8.1977     0.4992    48.1516 </r>
       <r>     8.3083     0.9286    48.2544 </r>
       <r>     8.4189     0.2363    48.2805 </r>
       <r>     8.5296     0.0565    48.2867 </r>
       <r>     8.6402     0.8093    48.3763 </r>
       <r>     8.7508     1.8590    48.5819 </r>
       <r>     8.8615     0.6411    48.6529 </r>
       <r>     8.9721     0.0304    48.6562 </r>
       <r>     9.0827     0.0006    48.6563 </r>
       <r>     9.1933     0.0288    48.6595 </r>
       <r>     9.3040     0.2513    48.6873 </r>
       <r>     9.4146     0.5726    48.7506 </r>
       <r>     9.5252     1.0744    48.8695 </r>
       <r>     9.6358     1.4471    49.0296 </r>
       <r>     9.7465     3.0645    49.3686 </r>
       <r>     9.8571     2.9782    49.6981 </r>
       <r>     9.9677     1.7548    49.8922 </r>
       <r>    10.0784     0.5468    49.9527 </r>
       <r>    10.1890     1.0775    50.0719 </r>
       <r>    10.2996     1.3725    50.2237 </r>
       <r>    10.4102     2.0544    50.4510 </r>
       <r>    10.5209     3.1203    50.7962 </r>
       <r>    10.6315     5.0608    51.3561 </r>
       <r>    10.7421     9.0552    52.3578 </r>
       <r>    10.8528     6.1980    53.0435 </r>
       <r>    10.9634     6.5255    53.7654 </r>
       <r>    11.0740     7.3658    54.5802 </r>
       <r>    11.1846     3.0201    54.9144 </r>
       <r>    11.2953     3.6648    55.3198 </r>
       <r>    11.4059     5.6563    55.9455 </r>
       <r>    11.5165     6.3193    56.6446 </r>
       <r>    11.6271     5.3504    57.2365 </r>
       <r>    11.7378     3.3684    57.6092 </r>
       <r>    11.8484     2.1695    57.8492 </r>
       <r>    11.9590     0.7360    57.9306 </r>
       <r>    12.0697     0.4935    57.9852 </r>
       <r>    12.1803     0.1297    57.9995 </r>
       <r>    12.2909     0.0043    58.0000 </r>
       <r>    12.4015     0.0000    58.0000 </r>
       <r>    12.5122     0.0000    58.0000 </r>
       <r>    12.6228     0.0000    58.0000 </r>
       <r>    12.7334     0.0000    58.0000 </r>
       <r>    12.8441     0.0000    58.0000 </r>
       <r>    12.9547     0.0000    58.0000 </r>
       <r>    13.0653     0.0000    58.0000 </r>
       <r>    13.1759     0.0000    58.0000 </r>
       <r>    13.2866     0.0000    58.0000 </r>
       <r>    13.3972     0.0000    58.0000 </r>
       <r>    13.5078     0.0000    58.0000 </r>
      </set>
     </set>
    </array>
   </total>
  </dos>
 </calculation>
 <structure name="finalpos" >
  <crystal>
   <varray name="basis" >
    <v>       4.87342988       0.00000000       0.00000000 </v>
    <v>      -2.43671494       4.22051408       0.00000000 </v>
    <v>       0.00000000       0.00000000       5.37418982 </v>
   </varray>
   <i name="volume">    110.53837516 </i>
   <varray name="rec_basis" >
    <v>       0.20519429       0.11846898      -0.00000000 </v>
    <v>       0.00000000       0.23693796       0.00000000 </v>
    <v>       0.00000000      -0.00000000       0.18607456 </v>
   </varray>
  </crystal>
  <varray name="positions" >
   <v>       0.46465457       0.99994324       0.66658430 </v>
   <v>       0.99997162       0.46467587       0.33337452 </v>
   <v>       0.53533835       0.53530997       0.00004118 </v>
   <v>       0.13531007       0.72409692       0.55415995 </v>
   <v>       0.27608725       0.41160306       0.22094055 </v>
   <v>       0.58830014       0.86436227       0.88746582 </v>
   <v>       0.41179756       0.27613189       0.77911574 </v>
   <v>       0.86454007       0.58859235       0.11256300 </v>
   <v>       0.72402715       0.13533801       0.44575494 </v>
  </varray>
 </structure>
</modeling>
