<?xml version="1.0" encoding="ISO-8859-1"?>
<modeling>
 <generator>
  <i name="program" type="string">vasp </i>
  <i name="version" type="string">6.4.1  </i>
  <i name="subversion" type="string">05Apr23 (build Sep  6 2023 20:49:31) complex                          parallel </i>
  <i name="platform" type="string">LinuxNV </i>
  <i name="date" type="string">2023 10 19 </i>
  <i name="time" type="string">14:07:48 </i>
 </generator>
 <incar>
  <i type="string" name="PREC">Accurate</i>
  <i type="string" name="ALGO">Fast</i>
  <i name="EDIFF">      0.00000001</i>
  <i name="ENCUT">    500.00000000</i>
  <i type="int" name="ISMEAR">     0</i>
  <i name="SIGMA">      0.10000000</i>
  <i type="logical" name="LEPSILON"> T  </i>
 </incar>
 <primitive_cell>
  <structure name="primitive_cell" >
   <crystal>
    <varray name="basis" >
     <v>       4.87342988       0.00000000       0.00000000 </v>
     <v>      -2.43671494       4.22051408       0.00000000 </v>
     <v>       0.00000000       0.00000000       5.37418982 </v>
    </varray>
    <i name="volume">    110.53837516 </i>
    <varray name="rec_basis" >
     <v>       0.20519429       0.11846898      -0.00000000 </v>
     <v>       0.00000000       0.23693796       0.00000000 </v>
     <v>       0.00000000      -0.00000000       0.18607456 </v>
    </varray>
   </crystal>
   <varray name="positions" >
    <v>       0.46463011       0.00000000       0.66666667 </v>
    <v>       0.00000000       0.46463011       0.33333333 </v>
    <v>       0.53536989       0.53536989       0.00000000 </v>
    <v>       0.13564152       0.72392564       0.55411953 </v>
    <v>       0.27607436       0.41171588       0.22078619 </v>
    <v>       0.58828412       0.86435848       0.88745286 </v>
    <v>       0.41171588       0.27607436       0.77921381 </v>
    <v>       0.86435848       0.58828412       0.11254714 </v>
    <v>       0.72392564       0.13564152       0.44588047 </v>
   </varray>
  </structure>
  <varray name="primitive_index" >
   <v type="int" >        1 </v>
   <v type="int" >        2 </v>
   <v type="int" >        3 </v>
   <v type="int" >        4 </v>
   <v type="int" >        5 </v>
   <v type="int" >        6 </v>
   <v type="int" >        7 </v>
   <v type="int" >        8 </v>
   <v type="int" >        9 </v>
  </varray>
 </primitive_cell>
 <kpoints>
  <generation param="Gamma">
   <v type="int" name="divisions">       4        4        4 </v>
   <v name="usershift">      0.00000000       0.00000000       0.00000000 </v>
   <v name="genvec1">      0.25000000       0.00000000       0.00000000 </v>
   <v name="genvec2">      0.00000000       0.25000000       0.00000000 </v>
   <v name="genvec3">      0.00000000       0.00000000       0.25000000 </v>
   <v name="shift">      0.00000000       0.00000000       0.00000000 </v>
  </generation>
  <varray name="kpointlist" >
   <v>       0.00000000       0.00000000       0.00000000 </v>
   <v>       0.25000000       0.00000000       0.00000000 </v>
   <v>       0.50000000       0.00000000       0.00000000 </v>
   <v>       0.25000000       0.25000000       0.00000000 </v>
   <v>       0.00000000       0.00000000       0.25000000 </v>
   <v>       0.25000000       0.00000000       0.25000000 </v>
   <v>       0.00000000       0.25000000       0.25000000 </v>
   <v>       0.50000000       0.00000000       0.25000000 </v>
   <v>       0.25000000       0.25000000       0.25000000 </v>
   <v>       0.00000000       0.00000000       0.50000000 </v>
   <v>       0.25000000       0.00000000       0.50000000 </v>
   <v>       0.50000000       0.00000000       0.50000000 </v>
   <v>       0.25000000       0.25000000       0.50000000 </v>
  </varray>
  <varray name="weights" >
   <v>       0.01562500 </v>
   <v>       0.09375000 </v>
   <v>       0.04687500 </v>
   <v>       0.09375000 </v>
   <v>       0.03125000 </v>
   <v>       0.09375000 </v>
   <v>       0.09375000 </v>
   <v>       0.09375000 </v>
   <v>       0.18750000 </v>
   <v>       0.01562500 </v>
   <v>       0.09375000 </v>
   <v>       0.04687500 </v>
   <v>       0.09375000 </v>
  </varray>
 </kpoints>
 <parameters>
  <separator name="general" >
   <i type="string" name="SYSTEM">unknown system</i>
   <i type="logical" name="LCOMPAT"> F  </i>
  </separator>
  <separator name="electronic" >
   <i type="string" name="PREC">accura</i>
   <i name="ENMAX">    500.00000000</i>
   <i name="ENAUG">    605.39200000</i>
   <i name="EDIFF">      0.00000001</i>
   <i type="int" name="IALGO">    68</i>
   <i type="int" name="IWAVPR">    10</i>
   <i type="int" name="NBANDS">    29</i>
   <i type="int" name="NBANDSLOW">    -1</i>
   <i type="int" name="NBANDSHIGH">    -1</i>
   <i name="NELECT">     48.00000000</i>
   <i type="int" name="TURBO">     0</i>
   <i type="int" name="IRESTART">     0</i>
   <i type="int" name="NREBOOT">     0</i>
   <i type="int" name="NMIN">     0</i>
   <i name="EREF">      0.00000000</i>
   <separator name="electronic smearing" >
    <i type="int" name="ISMEAR">     0</i>
    <i name="SIGMA">      0.10000000</i>
    <i name="KSPACING">      0.50000000</i>
    <i type="logical" name="KGAMMA"> T  </i>
    <i type="logical" name="KBLOWUP"> T  </i>
   </separator>
   <separator name="electronic projectors" >
    <i type="logical" name="LREAL"> F  </i>
    <v name="ROPT">      0.00000000      0.00000000</v>
    <i type="int" name="LMAXPAW">  -100</i>
    <i type="int" name="LMAXMIX">     2</i>
    <i type="logical" name="NLSPLINE"> F  </i>
   </separator>
   <separator name="electronic startup" >
    <i type="int" name="ISTART">     0</i>
    <i type="int" name="ICHARG">     2</i>
    <i type="int" name="INIWAV">     1</i>
   </separator>
   <separator name="electronic spin" >
    <i type="int" name="ISPIN">     1</i>
    <i type="logical" name="LNONCOLLINEAR"> F  </i>
    <v name="MAGMOM">      1.00000000      1.00000000      1.00000000      1.00000000      1.00000000      1.00000000      1.00000000      1.00000000      1.00000000</v>
    <i name="NUPDOWN">     -1.00000000</i>
    <i type="logical" name="LSORBIT"> F  </i>
    <v name="SAXIS">      0.00000000      0.00000000      1.00000000</v>
    <i type="logical" name="LSPIRAL"> F  </i>
    <v name="QSPIRAL">      0.00000000      0.00000000      0.00000000</v>
    <i type="logical" name="LZEROZ"> F  </i>
   </separator>
   <separator name="electronic exchange-correlation" >
    <i type="logical" name="LASPH"> F  </i>
    <i type="logical" name="LMETAGGA"> F  </i>
   </separator>
   <separator name="electronic convergence" >
    <i type="int" name="NELM">    60</i>
    <i type="int" name="NELMDL">    -5</i>
    <i type="int" name="NELMIN">     2</i>
    <i name="ENINI">    500.00000000</i>
    <separator name="electronic convergence detail" >
     <i type="logical" name="LDIAG"> T  </i>
     <i type="logical" name="LSUBROT"> F  </i>
     <i name="WEIMIN">      0.00000000</i>
     <i name="EBREAK">      0.00000000</i>
     <i name="DEPER">      0.30000000</i>
     <i type="int" name="NRMM">     4</i>
     <i name="TIME">      0.40000000</i>
    </separator>
   </separator>
   <separator name="electronic mixer" >
    <i name="AMIX">      0.40000000</i>
    <i name="BMIX">      1.00000000</i>
    <i name="AMIN">      0.10000000</i>
    <i name="AMIX_MAG">      1.60000000</i>
    <i name="BMIX_MAG">      1.00000000</i>
    <separator name="electronic mixer details" >
     <i type="int" name="IMIX">     4</i>
     <i type="logical" name="MIXFIRST"> F  </i>
     <i type="int" name="MAXMIX">   -45</i>
     <i name="WC">    100.00000000</i>
     <i type="int" name="INIMIX">     1</i>
     <i type="int" name="MIXPRE">     1</i>
     <i type="int" name="MREMOVE">     5</i>
    </separator>
   </separator>
   <separator name="electronic dipolcorrection" >
    <i type="logical" name="LDIPOL"> F  </i>
    <i type="logical" name="LMONO"> F  </i>
    <i type="int" name="IDIPOL">     0</i>
    <i name="EPSILON">      1.00000000</i>
    <v name="DIPOL">   -100.00000000   -100.00000000   -100.00000000</v>
    <i name="EFIELD">      0.00000000</i>
   </separator>
  </separator>
  <separator name="grids" >
   <i type="int" name="NGX">    36</i>
   <i type="int" name="NGY">    36</i>
   <i type="int" name="NGZ">    40</i>
   <i type="int" name="NGXF">    72</i>
   <i type="int" name="NGYF">    72</i>
   <i type="int" name="NGZF">    80</i>
   <i type="logical" name="ADDGRID"> F  </i>
  </separator>
  <separator name="ionic" >
   <i type="int" name="NSW">     0</i>
   <i type="int" name="IBRION">    -1</i>
   <i type="int" name="MDALGO">     0</i>
   <i type="int" name="ISIF">     2</i>
   <i name="PSTRESS">      0.00000000</i>
   <i name="EDIFFG">      0.00000010</i>
   <i type="int" name="NFREE">     0</i>
   <i name="POTIM">      0.50000000</i>
   <i name="SMASS">     -3.00000000</i>
   <i name="SCALEE">      1.00000000</i>
  </separator>
  <separator name="ionic md" >
   <i name="TEBEG">      0.00010000</i>
   <i name="TEEND">      0.00010000</i>
   <i type="int" name="NBLOCK">     1</i>
   <i type="int" name="KBLOCK">     1</i>
   <i type="int" name="NPACO">   256</i>
   <i name="APACO">     10.00000000</i>
  </separator>
  <separator name="symmetry" >
   <i type="int" name="ISYM">     2</i>
   <i name="SYMPREC">      0.00001000</i>
  </separator>
  <separator name="dos" >
   <i type="int" name="LORBIT">     0</i>
   <v name="RWIGS">     -1.00000000     -1.00000000</v>
   <i type="int" name="NEDOS">   301</i>
   <i name="EMIN">     10.00000000</i>
   <i name="EMAX">    -10.00000000</i>
   <i name="EFERMI">      0.00000000</i>
  </separator>
  <separator name="writing" >
   <i type="int" name="NWRITE">     2</i>
   <i type="logical" name="LWAVE"> T  </i>
   <i type="logical" name="LDOWNSAMPLE"> F  </i>
   <i type="logical" name="LCHARG"> T  </i>
   <i type="logical" name="LPARD"> F  </i>
   <i type="logical" name="LVTOT"> F  </i>
   <i type="logical" name="LVHAR"> F  </i>
   <i type="logical" name="LELF"> F  </i>
   <i type="logical" name="LOPTICS"> F  </i>
   <v name="STM">      0.00000000      0.00000000      0.00000000      0.00000000      0.00000000      0.00000000      0.00000000</v>
  </separator>
  <separator name="performance" >
   <i type="int" name="NPAR">     1</i>
   <i type="int" name="NSIM">     4</i>
   <i type="int" name="NBLK">    -1</i>
   <i type="logical" name="LPLANE"> T  </i>
   <i type="logical" name="LSCALAPACK"> T  </i>
   <i type="logical" name="LSCAAWARE"> F  </i>
   <i type="logical" name="LSCALU"> F  </i>
   <i type="logical" name="LASYNC"> F  </i>
   <i type="logical" name="LORBITALREAL"> F  </i>
  </separator>
  <separator name="miscellaneous" >
   <i type="int" name="IDIOT">     3</i>
   <i type="int" name="PHON_NSTRUCT">    -1</i>
   <i type="logical" name="LMUSIC"> F  </i>
   <v name="POMASS">     28.08500000     16.00000000</v>
   <v name="DARWINR">      0.00000000      0.00000000</v>
   <v name="DARWINV">      1.00000000      1.00000000</v>
   <i type="logical" name="LCORR"> T  </i>
  </separator>
  <i type="logical" name="GGA_COMPAT"> T  </i>
  <i type="logical" name="LBERRY"> F  </i>
  <i type="int" name="ICORELEVEL">     0</i>
  <i type="logical" name="LDAU"> F  </i>
  <i type="int" name="I_CONSTRAINED_M">     0</i>
  <separator name="electronic exchange-correlation" >
   <i type="string" name="GGA">--</i>
   <i type="int" name="VOSKOWN">     0</i>
   <i type="logical" name="LHFCALC"> F  </i>
   <i type="string" name="PRECFOCK"></i>
   <i type="logical" name="LSYMGRAD"> F  </i>
   <i type="logical" name="LHFONE"> F  </i>
   <i type="logical" name="LRHFCALC"> F  </i>
   <i type="logical" name="LTHOMAS"> F  </i>
   <i type="logical" name="LMODELHF"> F  </i>
   <i type="logical" name="LFOCKACE"> F  </i>
   <i name="ENCUT4O">     -1.00000000</i>
   <i type="int" name="EXXOEP">     0</i>
   <i type="int" name="FOURORBIT">     0</i>
   <i name="AEXX">      0.00000000</i>
   <i name="HFALPHA">      0.00000000</i>
   <i name="MCALPHA">      0.00000000</i>
   <i name="ALDAX">      1.00000000</i>
   <i name="AGGAX">      1.00000000</i>
   <i name="ALDAC">      1.00000000</i>
   <i name="AGGAC">      1.00000000</i>
   <i type="int" name="NKREDX">     1</i>
   <i type="int" name="NKREDY">     1</i>
   <i type="int" name="NKREDZ">     1</i>
   <i type="logical" name="SHIFTRED"> F  </i>
   <i type="logical" name="ODDONLY"> F  </i>
   <i type="logical" name="EVENONLY"> F  </i>
   <i type="int" name="LMAXFOCK">     0</i>
   <i type="int" name="NMAXFOCKAE">     0</i>
   <i type="logical" name="LFOCKAEDFT"> F  </i>
   <i name="HFSCREEN">      0.00000000</i>
   <i name="HFSCREENC">      0.00000000</i>
   <i type="int" name="NBANDSGWLOW">     0</i>
  </separator>
  <separator name="vdW DFT" >
   <i type="logical" name="LUSE_VDW"> F  </i>
   <i type="int" name="IVDW_NL">     1</i>
   <i type="logical" name="LSPIN_VDW"> F  </i>
   <i name="Zab_VDW">     -0.84910000</i>
   <i name="PARAM1">      0.12340000</i>
   <i name="PARAM2">      1.00000000</i>
   <i name="PARAM3">      0.00000000</i>
  </separator>
  <separator name="model GW" >
   <i type="int" name="MODEL_GW">     0</i>
   <i name="MODEL_EPS0">      7.36922501</i>
   <i name="MODEL_ALPHA">      1.00000000</i>
  </separator>
  <separator name="linear response parameters" >
   <i type="logical" name="LEPSILON"> T  </i>
   <i type="logical" name="LRPA"> F  </i>
   <i type="logical" name="LNABLA"> F  </i>
   <i type="logical" name="LVEL"> F  </i>
   <i name="CSHIFT">      0.10000000</i>
   <i name="OMEGAMAX">     -1.00000000</i>
   <i name="DEG_THRESHOLD">      0.00200000</i>
   <i name="RTIME">     -0.10000000</i>
   <i name="WPLASMAI">      0.00000000</i>
   <v name="DFIELD">      0.00000000      0.00000000      0.00000000</v>
   <v name="WPLASMA">      0.00000000      0.00000000      0.00000000      0.00000000      0.00000000      0.00000000      0.00000000      0.00000000      0.00000000</v>
  </separator>
  <separator name="orbital magnetization" >
   <i type="logical" name="NUCIND"> F  </i>
   <v name="MAGPOS">      0.00000000      0.00000000      0.00000000</v>
   <i type="logical" name="LNICSALL"> T  </i>
   <i type="logical" name="ORBITALMAG"> F  </i>
   <i type="logical" name="LMAGBLOCH"> F  </i>
   <i type="logical" name="LCHIMAG"> F  </i>
   <i type="logical" name="LGAUGE"> T  </i>
   <i type="int" name="MAGATOM">     0</i>
   <v name="MAGDIPOL">      0.00000000      0.00000000      0.00000000</v>
   <v name="AVECCONST">      0.00000000      0.00000000      0.00000000</v>
  </separator>
  <separator name="response functions" >
   <i type="logical" name="LALL_IN_ONE"> F  </i>
   <i type="int" name="IALL_IN_ONE">    -1</i>
   <i type="int" name="NBANDS_WAVE">    -1</i>
   <i type="logical" name="LFINITE_TEMPERATURE"> F  </i>
   <i type="logical" name="LADDER"> F  </i>
   <i type="logical" name="LRPAFORCE"> F  </i>
   <i type="logical" name="LFXC"> F  </i>
   <i type="logical" name="LHARTREE"> T  </i>
   <i type="int" name="IBSE">     0</i>
   <v type="int" name="KPOINT">    -1     0     0     0</v>
   <i type="logical" name="LTCTC"> F  </i>
   <i type="logical" name="LTCTE"> F  </i>
   <i type="logical" name="LTETE"> F  </i>
   <i type="logical" name="LTRIPLET"> F  </i>
   <i type="logical" name="LFXCEPS"> F  </i>
   <i type="logical" name="LFXHEG"> F  </i>
   <i type="int" name="NATURALO">     2</i>
   <i type="logical" name="LHOLEGF"> F  </i>
   <i type="logical" name="L2ORDER"> F  </i>
   <i type="logical" name="LDMP1"> F  </i>
   <i type="logical" name="LMP2LT"> F  </i>
   <i type="logical" name="LSMP2LT"> F  </i>
   <i type="logical" name="LGWLF"> F  </i>
   <i name="ENCUTGW">     -1.60000002</i>
   <i name="ENCUTGWSOFT">     -1.60000002</i>
   <i name="ENCUTLF">     -1.00000000</i>
   <i type="logical" name="LESF_SPLINES"> F  </i>
   <i type="int" name="LMAXMP2">    -1</i>
   <i name="SCISSOR">      0.00000000</i>
   <i type="int" name="NOMEGA">     0</i>
   <i type="int" name="NOMEGAR">     0</i>
   <i type="int" name="NBANDSGW">    -1</i>
   <i type="int" name="NBANDSO">    -1</i>
   <i type="int" name="NBANDSV">    -1</i>
   <i type="int" name="NELMGW">     1</i>
   <i type="int" name="NELMHF">     1</i>
   <i type="int" name="DIM">     3</i>
   <i type="int" name="IESPILON">     4</i>
   <i type="int" name="ANTIRES">     0</i>
   <i name="OMEGAMAX">    -30.00000000</i>
   <i name="OMEGAMIN">    -30.00000000</i>
   <i name="OMEGATL">   -200.00000000</i>
   <i type="int" name="OMEGAGRID">     0</i>
   <i name="CSHIFT">     -0.10000000</i>
   <i type="logical" name="LSELFENERGY"> F  </i>
   <i type="logical" name="LSPECTRAL"> F  </i>
   <i type="logical" name="LSPECTRALGW"> F  </i>
   <i type="logical" name="LSINGLES"> F  </i>
   <i type="logical" name="LFERMIGW"> F  </i>
   <i type="logical" name="ODDONLYGW"> F  </i>
   <i type="logical" name="EVENONLYGW"> F  </i>
   <i type="int" name="NKREDLFX">     1</i>
   <i type="int" name="NKREDLFY">     1</i>
   <i type="int" name="NKREDLFZ">     1</i>
   <i type="int" name="MAXMEM">  2800</i>
   <i type="int" name="TELESCOPE">     0</i>
   <i type="int" name="NTAUPAR">    -1</i>
   <i type="int" name="NOMEGAPAR">    -1</i>
   <i name="DAMP_NEWTON">      0.80000001</i>
   <i name="LAMBDA">      1.00000000</i>
  </separator>
  <separator name="External order field" >
   <i name="OFIELD_KAPPA">      0.00000000</i>
   <v name="OFIELD_K">      0.00000000      0.00000000      0.00000000</v>
   <i name="OFIELD_Q6_NEAR">      0.00000000</i>
   <i name="OFIELD_Q6_FAR">      0.00000000</i>
   <i name="OFIELD_A">      0.00000000</i>
  </separator>
  <separator name="optional k-points parameters" >
   <i type="int" name="KPOINTS_OPT_MODE">     1</i>
   <i type="logical" name="LKPOINTS_OPT"> F  </i>
  </separator>
 </parameters>
 <atominfo>
  <atoms>       9 </atoms>
  <types>       2 </types>
  <array name="atoms" >
   <dimension dim="1">ion</dimension>
   <field type="string">element</field>
   <field type="int">atomtype</field>
   <set>
    <rc><c>Si</c><c>   1</c></rc>
    <rc><c>Si</c><c>   1</c></rc>
    <rc><c>Si</c><c>   1</c></rc>
    <rc><c>O </c><c>   2</c></rc>
    <rc><c>O </c><c>   2</c></rc>
    <rc><c>O </c><c>   2</c></rc>
    <rc><c>O </c><c>   2</c></rc>
    <rc><c>O </c><c>   2</c></rc>
    <rc><c>O </c><c>   2</c></rc>
   </set>
  </array>
  <array name="atomtypes" >
   <dimension dim="1">type</dimension>
   <field type="int">atomspertype</field>
   <field type="string">element</field>
   <field>mass</field>
   <field>valence</field>
   <field type="string">pseudopotential</field>
   <set>
    <rc><c>   3</c><c>Si</c><c>     28.08500000</c><c>      4.00000000</c><c>  PAW_PBE Si 05Jan2001                  </c></rc>
    <rc><c>   6</c><c>O </c><c>     16.00000000</c><c>      6.00000000</c><c>  PAW_PBE O 08Apr2002                   </c></rc>
   </set>
  </array>
 </atominfo>
 <structure name="initialpos" >
  <crystal>
   <varray name="basis" >
    <v>       4.87342988       0.00000000       0.00000000 </v>
    <v>      -2.43671494       4.22051408       0.00000000 </v>
    <v>       0.00000000       0.00000000       5.37418982 </v>
   </varray>
   <i name="volume">    110.53837516 </i>
   <varray name="rec_basis" >
    <v>       0.20519429       0.11846898      -0.00000000 </v>
    <v>       0.00000000       0.23693796       0.00000000 </v>
    <v>       0.00000000      -0.00000000       0.18607456 </v>
   </varray>
  </crystal>
  <varray name="positions" >
   <v>       0.46463011       0.00000000       0.66666667 </v>
   <v>       0.00000000       0.46463011       0.33333333 </v>
   <v>       0.53536989       0.53536989       0.00000000 </v>
   <v>       0.13564152       0.72392564       0.55411953 </v>
   <v>       0.27607436       0.41171588       0.22078619 </v>
   <v>       0.58828412       0.86435848       0.88745286 </v>
   <v>       0.41171588       0.27607436       0.77921381 </v>
   <v>       0.86435848       0.58828412       0.11254714 </v>
   <v>       0.72392564       0.13564152       0.44588047 </v>
  </varray>
 </structure>
 <calculation>
  <scstep>
   <time name="dav">    0.48    0.48</time>
   <time name="total">    0.52    0.50</time>
   <energy>
    <i name="alphaZ">     71.30271804 </i>
    <i name="ewald">  -1929.60316846 </i>
    <i name="hartreedc">   -909.80800639 </i>
    <i name="XCdc">    141.71672099 </i>
    <i name="pawpsdc">   2343.66826019 </i>
    <i name="pawaedc">  -2301.68043871 </i>
    <i name="eentropy">     -0.00333458 </i>
    <i name="bandstr">    -13.71196412 </i>
    <i name="atom">   2903.33737771 </i>
    <i name="e_fr_energy">    305.21816467 </i>
    <i name="e_wo_entrp">    305.22149925 </i>
    <i name="e_0_energy">    305.21983196 </i>
   </energy>
  </scstep>
  <scstep>
   <time name="dav">    0.45    0.45</time>
   <time name="total">    0.45    0.45</time>
   <energy>
    <i name="e_fr_energy">    -60.80452124 </i>
    <i name="e_wo_entrp">    -60.80452124 </i>
    <i name="e_0_energy">    -60.80452124 </i>
   </energy>
  </scstep>
  <scstep>
   <time name="dav">    0.42    0.42</time>
   <time name="total">    0.42    0.42</time>
   <energy>
    <i name="e_fr_energy">    -80.17042513 </i>
    <i name="e_wo_entrp">    -80.17042513 </i>
    <i name="e_0_energy">    -80.17042513 </i>
   </energy>
  </scstep>
  <scstep>
   <time name="dav">    0.42    0.42</time>
   <time name="total">    0.42    0.42</time>
   <energy>
    <i name="e_fr_energy">    -80.42330718 </i>
    <i name="e_wo_entrp">    -80.42330718 </i>
    <i name="e_0_energy">    -80.42330718 </i>
   </energy>
  </scstep>
  <scstep>
   <time name="dav">    0.41    0.41</time>
   <time name="total">    0.51    0.48</time>
   <energy>
    <i name="e_fr_energy">    -80.42830572 </i>
    <i name="e_wo_entrp">    -80.42830572 </i>
    <i name="e_0_energy">    -80.42830572 </i>
   </energy>
  </scstep>
  <scstep>
   <time name="diag">    0.05    0.04</time>
   <time name="diis">    0.47    0.47</time>
   <time name="orth">    0.00    0.00</time>
   <time name="total">    0.63    0.58</time>
   <energy>
    <i name="e_fr_energy">    -70.67240200 </i>
    <i name="e_wo_entrp">    -70.67240200 </i>
    <i name="e_0_energy">    -70.67240200 </i>
   </energy>
  </scstep>
  <scstep>
   <time name="diag">    0.05    0.04</time>
   <time name="diis">    0.52    0.52</time>
   <time name="orth">    0.00    0.00</time>
   <time name="total">    0.68    0.63</time>
   <energy>
    <i name="e_fr_energy">    -70.97484825 </i>
    <i name="e_wo_entrp">    -70.97484825 </i>
    <i name="e_0_energy">    -70.97484825 </i>
   </energy>
  </scstep>
  <scstep>
   <time name="diag">    0.05    0.04</time>
   <time name="diis">    0.52    0.52</time>
   <time name="orth">    0.00    0.00</time>
   <time name="total">    0.68    0.64</time>
   <energy>
    <i name="e_fr_energy">    -70.96655377 </i>
    <i name="e_wo_entrp">    -70.96655377 </i>
    <i name="e_0_energy">    -70.96655377 </i>
   </energy>
  </scstep>
  <scstep>
   <time name="diag">    0.05    0.04</time>
   <time name="diis">    0.53    0.53</time>
   <time name="orth">    0.00    0.00</time>
   <time name="total">    0.70    0.65</time>
   <energy>
    <i name="e_fr_energy">    -70.98563702 </i>
    <i name="e_wo_entrp">    -70.98563702 </i>
    <i name="e_0_energy">    -70.98563702 </i>
   </energy>
  </scstep>
  <scstep>
   <time name="diag">    0.05    0.04</time>
   <time name="diis">    0.53    0.53</time>
   <time name="orth">    0.00    0.00</time>
   <time name="total">    0.70    0.65</time>
   <energy>
    <i name="e_fr_energy">    -70.99093312 </i>
    <i name="e_wo_entrp">    -70.99093312 </i>
    <i name="e_0_energy">    -70.99093312 </i>
   </energy>
  </scstep>
  <scstep>
   <time name="diag">    0.05    0.04</time>
   <time name="diis">    0.58    0.59</time>
   <time name="orth">    0.00    0.00</time>
   <time name="total">    0.76    0.70</time>
   <energy>
    <i name="e_fr_energy">    -70.98705579 </i>
    <i name="e_wo_entrp">    -70.98705579 </i>
    <i name="e_0_energy">    -70.98705579 </i>
   </energy>
  </scstep>
  <scstep>
   <time name="diag">    0.05    0.04</time>
   <time name="diis">    0.53    0.53</time>
   <time name="orth">    0.00    0.00</time>
   <time name="total">    0.70    0.65</time>
   <energy>
    <i name="e_fr_energy">    -70.98765347 </i>
    <i name="e_wo_entrp">    -70.98765347 </i>
    <i name="e_0_energy">    -70.98765347 </i>
   </energy>
  </scstep>
  <scstep>
   <time name="diag">    0.05    0.04</time>
   <time name="diis">    0.56    0.56</time>
   <time name="orth">    0.00    0.00</time>
   <time name="total">    0.73    0.68</time>
   <energy>
    <i name="e_fr_energy">    -70.98741590 </i>
    <i name="e_wo_entrp">    -70.98741590 </i>
    <i name="e_0_energy">    -70.98741590 </i>
   </energy>
  </scstep>
  <scstep>
   <time name="diag">    0.05    0.04</time>
   <time name="diis">    0.54    0.54</time>
   <time name="orth">    0.00    0.00</time>
   <time name="total">    0.71    0.66</time>
   <energy>
    <i name="e_fr_energy">    -70.98737823 </i>
    <i name="e_wo_entrp">    -70.98737823 </i>
    <i name="e_0_energy">    -70.98737823 </i>
   </energy>
  </scstep>
  <scstep>
   <time name="diag">    0.05    0.04</time>
   <time name="diis">    0.58    0.58</time>
   <time name="orth">    0.00    0.00</time>
   <time name="total">    0.75    0.69</time>
   <energy>
    <i name="e_fr_energy">    -70.98737451 </i>
    <i name="e_wo_entrp">    -70.98737451 </i>
    <i name="e_0_energy">    -70.98737451 </i>
   </energy>
  </scstep>
  <scstep>
   <time name="diag">    0.05    0.04</time>
   <time name="diis">    0.53    0.54</time>
   <time name="orth">    0.00    0.00</time>
   <time name="total">    0.71    0.65</time>
   <energy>
    <i name="e_fr_energy">    -70.98737337 </i>
    <i name="e_wo_entrp">    -70.98737337 </i>
    <i name="e_0_energy">    -70.98737337 </i>
   </energy>
  </scstep>
  <scstep>
   <time name="diag">    0.05    0.04</time>
   <time name="diis">    0.53    0.54</time>
   <time name="orth">    0.00    0.00</time>
   <time name="total">    0.71    0.65</time>
   <energy>
    <i name="e_fr_energy">    -70.98737356 </i>
    <i name="e_wo_entrp">    -70.98737356 </i>
    <i name="e_0_energy">    -70.98737356 </i>
   </energy>
  </scstep>
  <scstep>
   <time name="diag">    0.05    0.04</time>
   <time name="diis">    0.58    0.58</time>
   <time name="orth">    0.00    0.00</time>
   <time name="total">    0.75    0.70</time>
   <energy>
    <i name="e_fr_energy">    -70.98737374 </i>
    <i name="e_wo_entrp">    -70.98737374 </i>
    <i name="e_0_energy">    -70.98737374 </i>
   </energy>
  </scstep>
  <scstep>
   <time name="diag">    0.05    0.04</time>
   <time name="diis">    0.53    0.54</time>
   <time name="orth">    0.00    0.00</time>
   <time name="total">    0.71    0.65</time>
   <energy>
    <i name="e_fr_energy">    -70.98737372 </i>
    <i name="e_wo_entrp">    -70.98737372 </i>
    <i name="e_0_energy">    -70.98737372 </i>
   </energy>
  </scstep>
  <scstep>
   <time name="diag">    0.05    0.04</time>
   <time name="diis">    0.53    0.53</time>
   <time name="orth">    0.00    0.00</time>
   <time name="total">    0.70    0.65</time>
   <energy>
    <i name="e_fr_energy">    -70.98737376 </i>
    <i name="e_wo_entrp">    -70.98737376 </i>
    <i name="e_0_energy">    -70.98737376 </i>
   </energy>
  </scstep>
  <scstep>
   <time name="diag">    0.05    0.04</time>
   <time name="diis">    0.36    0.36</time>
   <time name="orth">    0.00    0.00</time>
   <time name="total">    0.53    0.47</time>
   <energy>
    <i name="e_fr_energy">    -70.98737374 </i>
    <i name="e_wo_entrp">    -70.98737374 </i>
    <i name="e_0_energy">    -70.98737374 </i>
   </energy>
  </scstep>
  <scstep>
   <time name="diag">    0.05    0.04</time>
   <time name="diis">    0.35    0.35</time>
   <time name="orth">    0.00    0.00</time>
   <time name="total">    0.43    0.41</time>
   <energy>
    <i name="alphaZ">     71.30271804 </i>
    <i name="ewald">  -1929.60316846 </i>
    <i name="hartreedc">  -1041.07288333 </i>
    <i name="XCdc">    150.69804269 </i>
    <i name="pawpsdc">   8056.14510905 </i>
    <i name="pawaedc">  -8016.52668912 </i>
    <i name="eentropy">     -0.00000000 </i>
    <i name="bandstr">   -265.26788031 </i>
    <i name="atom">   2903.33737771 </i>
    <i name="e_fr_energy">    -70.98737373 </i>
    <i name="e_wo_entrp">    -70.98737373 </i>
    <i name="e_0_energy">    -70.98737373 </i>
   </energy>
  </scstep>
  <structure>
   <crystal>
    <varray name="basis" >
     <v>       4.87342988       0.00000000       0.00000000 </v>
     <v>      -2.43671494       4.22051408       0.00000000 </v>
     <v>       0.00000000       0.00000000       5.37418982 </v>
    </varray>
    <i name="volume">    110.53837516 </i>
    <varray name="rec_basis" >
     <v>       0.20519429       0.11846898      -0.00000000 </v>
     <v>       0.00000000       0.23693796       0.00000000 </v>
     <v>       0.00000000      -0.00000000       0.18607456 </v>
    </varray>
   </crystal>
   <varray name="positions" >
    <v>       0.46463011       0.00000000       0.66666667 </v>
    <v>       0.00000000       0.46463011       0.33333333 </v>
    <v>       0.53536989       0.53536989       0.00000000 </v>
    <v>       0.13564152       0.72392564       0.55411953 </v>
    <v>       0.27607436       0.41171588       0.22078619 </v>
    <v>       0.58828412       0.86435848       0.88745286 </v>
    <v>       0.41171588       0.27607436       0.77921381 </v>
    <v>       0.86435848       0.58828412       0.11254714 </v>
    <v>       0.72392564       0.13564152       0.44588047 </v>
   </varray>
  </structure>
  <varray name="forces" >
   <v>       0.02364710       0.00000000      -0.00000000 </v>
   <v>      -0.01182355       0.02047899      -0.00000000 </v>
   <v>      -0.01182355      -0.02047899      -0.00000000 </v>
   <v>      -0.28605883       0.00183284       0.15793888 </v>
   <v>       0.14144213      -0.24865063       0.15793888 </v>
   <v>       0.14461670       0.24681779       0.15793888 </v>
   <v>      -0.28605883      -0.00183284      -0.15793888 </v>
   <v>       0.14144213       0.24865063      -0.15793888 </v>
   <v>       0.14461670      -0.24681779      -0.15793888 </v>
  </varray>
  <varray name="stress" >
   <v>      72.94575943       0.00000000       0.00000000 </v>
   <v>       0.00000000      72.94575943       0.00000000 </v>
   <v>       0.00000000      -0.00000000      74.53669189 </v>
  </varray>
  <energy>
   <i name="e_fr_energy">    -70.98737373 </i>
   <i name="e_wo_entrp">    -70.98737373 </i>
   <i name="e_0_energy">    -70.98737373 </i>
  </energy>
  <scstep>
   <time name="total">    6.72    1.43</time>
   <energy>
    <i name="e_fr_energy">   -182.68985159 </i>
    <i name="e_wo_entrp">   -182.68985159 </i>
    <i name="e_0_energy">   -182.68985159 </i>
   </energy>
  </scstep>
  <scstep>
   <time name="total">    6.55    1.26</time>
   <energy>
    <i name="e_fr_energy">   -172.55305890 </i>
    <i name="e_wo_entrp">   -172.55305890 </i>
    <i name="e_0_energy">   -172.55305890 </i>
   </energy>
  </scstep>
  <scstep>
   <time name="total">    6.94    1.37</time>
   <energy>
    <i name="e_fr_energy">   -172.69908520 </i>
    <i name="e_wo_entrp">   -172.69908520 </i>
    <i name="e_0_energy">   -172.69908520 </i>
   </energy>
  </scstep>
  <scstep>
   <time name="total">    0.51    0.51</time>
   <energy>
    <i name="e_fr_energy">   -172.70645412 </i>
    <i name="e_wo_entrp">   -172.70645412 </i>
    <i name="e_0_energy">   -172.70645412 </i>
   </energy>
  </scstep>
  <scstep>
   <time name="total">    0.51    0.51</time>
   <energy>
    <i name="e_fr_energy">   -172.70662362 </i>
    <i name="e_wo_entrp">   -172.70662362 </i>
    <i name="e_0_energy">   -172.70662362 </i>
   </energy>
  </scstep>
  <scstep>
   <time name="total">    0.52    0.52</time>
   <energy>
    <i name="e_fr_energy">   -172.70663309 </i>
    <i name="e_wo_entrp">   -172.70663309 </i>
    <i name="e_0_energy">   -172.70663309 </i>
   </energy>
  </scstep>
  <scstep>
   <time name="total">    0.53    0.53</time>
   <energy>
    <i name="e_fr_energy">   -172.70663237 </i>
    <i name="e_wo_entrp">   -172.70663237 </i>
    <i name="e_0_energy">   -172.70663237 </i>
   </energy>
  </scstep>
  <scstep>
   <time name="total">    0.53    0.53</time>
   <energy>
    <i name="e_fr_energy">   -172.70663024 </i>
    <i name="e_wo_entrp">   -172.70663024 </i>
    <i name="e_0_energy">   -172.70663024 </i>
   </energy>
  </scstep>
  <scstep>
   <time name="total">    0.53    0.53</time>
   <energy>
    <i name="e_fr_energy">   -172.70662973 </i>
    <i name="e_wo_entrp">   -172.70662973 </i>
    <i name="e_0_energy">   -172.70662973 </i>
   </energy>
  </scstep>
  <scstep>
   <time name="total">    0.53    0.53</time>
   <energy>
    <i name="e_fr_energy">   -172.70662980 </i>
    <i name="e_wo_entrp">   -172.70662980 </i>
    <i name="e_0_energy">   -172.70662980 </i>
   </energy>
  </scstep>
  <scstep>
   <time name="total">    6.71    1.43</time>
   <energy>
    <i name="e_fr_energy">   -182.14013629 </i>
    <i name="e_wo_entrp">   -182.14013629 </i>
    <i name="e_0_energy">   -182.14013629 </i>
   </energy>
  </scstep>
  <scstep>
   <time name="total">    6.52    1.25</time>
   <energy>
    <i name="e_fr_energy">   -172.67006266 </i>
    <i name="e_wo_entrp">   -172.67006266 </i>
    <i name="e_0_energy">   -172.67006266 </i>
   </energy>
  </scstep>
  <scstep>
   <time name="total">    6.53    1.26</time>
   <energy>
    <i name="e_fr_energy">   -172.81268235 </i>
    <i name="e_wo_entrp">   -172.81268235 </i>
    <i name="e_0_energy">   -172.81268235 </i>
   </energy>
  </scstep>
  <scstep>
   <time name="total">    0.51    0.51</time>
   <energy>
    <i name="e_fr_energy">   -172.81996687 </i>
    <i name="e_wo_entrp">   -172.81996687 </i>
    <i name="e_0_energy">   -172.81996687 </i>
   </energy>
  </scstep>
  <scstep>
   <time name="total">    0.51    0.51</time>
   <energy>
    <i name="e_fr_energy">   -172.82015332 </i>
    <i name="e_wo_entrp">   -172.82015332 </i>
    <i name="e_0_energy">   -172.82015332 </i>
   </energy>
  </scstep>
  <scstep>
   <time name="total">    0.52    0.52</time>
   <energy>
    <i name="e_fr_energy">   -172.82016976 </i>
    <i name="e_wo_entrp">   -172.82016976 </i>
    <i name="e_0_energy">   -172.82016976 </i>
   </energy>
  </scstep>
  <scstep>
   <time name="total">    0.52    0.53</time>
   <energy>
    <i name="e_fr_energy">   -172.82017138 </i>
    <i name="e_wo_entrp">   -172.82017138 </i>
    <i name="e_0_energy">   -172.82017138 </i>
   </energy>
  </scstep>
  <scstep>
   <time name="total">    0.53    0.53</time>
   <energy>
    <i name="e_fr_energy">   -172.82017255 </i>
    <i name="e_wo_entrp">   -172.82017255 </i>
    <i name="e_0_energy">   -172.82017255 </i>
   </energy>
  </scstep>
  <scstep>
   <time name="total">    0.53    0.53</time>
   <energy>
    <i name="e_fr_energy">   -172.82017155 </i>
    <i name="e_wo_entrp">   -172.82017155 </i>
    <i name="e_0_energy">   -172.82017155 </i>
   </energy>
  </scstep>
  <scstep>
   <time name="total">    0.53    0.53</time>
   <energy>
    <i name="e_fr_energy">   -172.82017140 </i>
    <i name="e_wo_entrp">   -172.82017140 </i>
    <i name="e_0_energy">   -172.82017140 </i>
   </energy>
  </scstep>
  <scstep>
   <time name="total">    6.97    1.46</time>
   <energy>
    <i name="e_fr_energy">   -182.15334307 </i>
    <i name="e_wo_entrp">   -182.15334307 </i>
    <i name="e_0_energy">   -182.15334307 </i>
   </energy>
  </scstep>
  <scstep>
   <time name="total">    6.61    1.25</time>
   <energy>
    <i name="e_fr_energy">   -172.55708546 </i>
    <i name="e_wo_entrp">   -172.55708546 </i>
    <i name="e_0_energy">   -172.55708546 </i>
   </energy>
  </scstep>
  <scstep>
   <time name="total">    6.54    1.26</time>
   <energy>
    <i name="e_fr_energy">   -172.71005827 </i>
    <i name="e_wo_entrp">   -172.71005827 </i>
    <i name="e_0_energy">   -172.71005827 </i>
   </energy>
  </scstep>
  <scstep>
   <time name="total">    0.50    0.51</time>
   <energy>
    <i name="e_fr_energy">   -172.71744223 </i>
    <i name="e_wo_entrp">   -172.71744223 </i>
    <i name="e_0_energy">   -172.71744223 </i>
   </energy>
  </scstep>
  <scstep>
   <time name="total">    0.51    0.51</time>
   <energy>
    <i name="e_fr_energy">   -172.71760249 </i>
    <i name="e_wo_entrp">   -172.71760249 </i>
    <i name="e_0_energy">   -172.71760249 </i>
   </energy>
  </scstep>
  <scstep>
   <time name="total">    0.51    0.51</time>
   <energy>
    <i name="e_fr_energy">   -172.71760706 </i>
    <i name="e_wo_entrp">   -172.71760706 </i>
    <i name="e_0_energy">   -172.71760706 </i>
   </energy>
  </scstep>
  <scstep>
   <time name="total">    0.52    0.52</time>
   <energy>
    <i name="e_fr_energy">   -172.71760750 </i>
    <i name="e_wo_entrp">   -172.71760750 </i>
    <i name="e_0_energy">   -172.71760750 </i>
   </energy>
  </scstep>
  <scstep>
   <time name="total">    0.51    0.51</time>
   <energy>
    <i name="e_fr_energy">   -172.71760700 </i>
    <i name="e_wo_entrp">   -172.71760700 </i>
    <i name="e_0_energy">   -172.71760700 </i>
   </energy>
  </scstep>
  <scstep>
   <time name="total">    0.50    0.51</time>
   <energy>
    <i name="e_fr_energy">   -172.71759949 </i>
    <i name="e_wo_entrp">   -172.71759949 </i>
    <i name="e_0_energy">   -172.71759949 </i>
   </energy>
  </scstep>
  <scstep>
   <time name="total">    0.51    0.51</time>
   <energy>
    <i name="e_fr_energy">   -172.71759813 </i>
    <i name="e_wo_entrp">   -172.71759813 </i>
    <i name="e_0_energy">   -172.71759813 </i>
   </energy>
  </scstep>
  <scstep>
   <time name="total">    1.23    0.74</time>
   <energy>
    <i name="e_fr_energy">     -0.48186029 </i>
    <i name="e_wo_entrp">     -0.48186029 </i>
    <i name="e_0_energy">     -0.48186029 </i>
   </energy>
  </scstep>
  <scstep>
   <time name="total">    1.25    0.74</time>
   <energy>
    <i name="e_fr_energy">     -0.48426141 </i>
    <i name="e_wo_entrp">     -0.48426141 </i>
    <i name="e_0_energy">     -0.48426141 </i>
   </energy>
  </scstep>
  <scstep>
   <time name="total">    1.21    0.73</time>
   <energy>
    <i name="e_fr_energy">     -0.48444359 </i>
    <i name="e_wo_entrp">     -0.48444359 </i>
    <i name="e_0_energy">     -0.48444359 </i>
   </energy>
  </scstep>
  <scstep>
   <time name="total">    1.21    0.74</time>
   <energy>
    <i name="e_fr_energy">     -0.48445220 </i>
    <i name="e_wo_entrp">     -0.48445220 </i>
    <i name="e_0_energy">     -0.48445220 </i>
   </energy>
  </scstep>
  <scstep>
   <time name="total">    1.22    0.74</time>
   <energy>
    <i name="e_fr_energy">     -0.48445250 </i>
    <i name="e_wo_entrp">     -0.48445250 </i>
    <i name="e_0_energy">     -0.48445250 </i>
   </energy>
  </scstep>
  <scstep>
   <time name="total">    1.19    0.71</time>
   <energy>
    <i name="e_fr_energy">     -0.48445252 </i>
    <i name="e_wo_entrp">     -0.48445252 </i>
    <i name="e_0_energy">     -0.48445252 </i>
   </energy>
  </scstep>
  <scstep>
   <time name="total">    1.15    0.68</time>
   <energy>
    <i name="e_fr_energy">     -0.48445252 </i>
    <i name="e_wo_entrp">     -0.48445252 </i>
    <i name="e_0_energy">     -0.48445252 </i>
   </energy>
  </scstep>
  <scstep>
   <time name="total">    1.14    0.66</time>
   <energy>
    <i name="e_fr_energy">     -0.48445252 </i>
    <i name="e_wo_entrp">     -0.48445252 </i>
    <i name="e_0_energy">     -0.48445252 </i>
   </energy>
  </scstep>
  <scstep>
   <time name="total">    1.17    0.66</time>
   <energy>
    <i name="e_fr_energy">     -0.48445252 </i>
    <i name="e_wo_entrp">     -0.48445252 </i>
    <i name="e_0_energy">     -0.48445252 </i>
   </energy>
  </scstep>
  <scstep>
   <time name="total">    1.24    0.74</time>
   <energy>
    <i name="e_fr_energy">     -0.48360227 </i>
    <i name="e_wo_entrp">     -0.48360227 </i>
    <i name="e_0_energy">     -0.48360227 </i>
   </energy>
  </scstep>
  <scstep>
   <time name="total">    1.21    0.73</time>
   <energy>
    <i name="e_fr_energy">     -0.48578390 </i>
    <i name="e_wo_entrp">     -0.48578390 </i>
    <i name="e_0_energy">     -0.48578390 </i>
   </energy>
  </scstep>
  <scstep>
   <time name="total">    1.23    0.73</time>
   <energy>
    <i name="e_fr_energy">     -0.48597604 </i>
    <i name="e_wo_entrp">     -0.48597604 </i>
    <i name="e_0_energy">     -0.48597604 </i>
   </energy>
  </scstep>
  <scstep>
   <time name="total">    1.24    0.74</time>
   <energy>
    <i name="e_fr_energy">     -0.48598479 </i>
    <i name="e_wo_entrp">     -0.48598479 </i>
    <i name="e_0_energy">     -0.48598479 </i>
   </energy>
  </scstep>
  <scstep>
   <time name="total">    1.26    0.75</time>
   <energy>
    <i name="e_fr_energy">     -0.48598510 </i>
    <i name="e_wo_entrp">     -0.48598510 </i>
    <i name="e_0_energy">     -0.48598510 </i>
   </energy>
  </scstep>
  <scstep>
   <time name="total">    1.19    0.71</time>
   <energy>
    <i name="e_fr_energy">     -0.48598512 </i>
    <i name="e_wo_entrp">     -0.48598512 </i>
    <i name="e_0_energy">     -0.48598512 </i>
   </energy>
  </scstep>
  <scstep>
   <time name="total">    1.15    0.67</time>
   <energy>
    <i name="e_fr_energy">     -0.48598512 </i>
    <i name="e_wo_entrp">     -0.48598512 </i>
    <i name="e_0_energy">     -0.48598512 </i>
   </energy>
  </scstep>
  <scstep>
   <time name="total">    1.15    0.67</time>
   <energy>
    <i name="e_fr_energy">     -0.48598512 </i>
    <i name="e_wo_entrp">     -0.48598512 </i>
    <i name="e_0_energy">     -0.48598512 </i>
   </energy>
  </scstep>
  <scstep>
   <time name="total">    1.13    0.65</time>
   <energy>
    <i name="e_fr_energy">     -0.48598512 </i>
    <i name="e_wo_entrp">     -0.48598512 </i>
    <i name="e_0_energy">     -0.48598512 </i>
   </energy>
  </scstep>
  <scstep>
   <time name="total">    1.21    0.73</time>
   <energy>
    <i name="e_fr_energy">     -0.48728003 </i>
    <i name="e_wo_entrp">     -0.48728003 </i>
    <i name="e_0_energy">     -0.48728003 </i>
   </energy>
  </scstep>
  <scstep>
   <time name="total">    1.20    0.72</time>
   <energy>
    <i name="e_fr_energy">     -0.48930312 </i>
    <i name="e_wo_entrp">     -0.48930312 </i>
    <i name="e_0_energy">     -0.48930312 </i>
   </energy>
  </scstep>
  <scstep>
   <time name="total">    1.20    0.73</time>
   <energy>
    <i name="e_fr_energy">     -0.48949396 </i>
    <i name="e_wo_entrp">     -0.48949396 </i>
    <i name="e_0_energy">     -0.48949396 </i>
   </energy>
  </scstep>
  <scstep>
   <time name="total">    1.21    0.73</time>
   <energy>
    <i name="e_fr_energy">     -0.48950287 </i>
    <i name="e_wo_entrp">     -0.48950287 </i>
    <i name="e_0_energy">     -0.48950287 </i>
   </energy>
  </scstep>
  <scstep>
   <time name="total">    1.21    0.73</time>
   <energy>
    <i name="e_fr_energy">     -0.48950317 </i>
    <i name="e_wo_entrp">     -0.48950317 </i>
    <i name="e_0_energy">     -0.48950317 </i>
   </energy>
  </scstep>
  <scstep>
   <time name="total">    1.18    0.70</time>
   <energy>
    <i name="e_fr_energy">     -0.48950320 </i>
    <i name="e_wo_entrp">     -0.48950320 </i>
    <i name="e_0_energy">     -0.48950320 </i>
   </energy>
  </scstep>
  <scstep>
   <time name="total">    1.14    0.67</time>
   <energy>
    <i name="e_fr_energy">     -0.48950320 </i>
    <i name="e_wo_entrp">     -0.48950320 </i>
    <i name="e_0_energy">     -0.48950320 </i>
   </energy>
  </scstep>
  <scstep>
   <time name="total">    1.13    0.65</time>
   <energy>
    <i name="e_fr_energy">     -0.48950320 </i>
    <i name="e_wo_entrp">     -0.48950320 </i>
    <i name="e_0_energy">     -0.48950320 </i>
   </energy>
  </scstep>
  <scstep>
   <time name="total">    1.14    0.65</time>
   <energy>
    <i name="e_fr_energy">     -0.48950320 </i>
    <i name="e_wo_entrp">     -0.48950320 </i>
    <i name="e_0_energy">     -0.48950320 </i>
   </energy>
  </scstep>
  <scstep>
   <time name="total">    1.12    0.64</time>
   <energy>
    <i name="e_fr_energy">     -0.48950320 </i>
    <i name="e_wo_entrp">     -0.48950320 </i>
    <i name="e_0_energy">     -0.48950320 </i>
   </energy>
  </scstep>
  <varray name="dielectric_ipa" >
   <v>       2.58861864       0.00000000       0.00000000 </v>
   <v>       0.00000000       2.58861864       0.00000000 </v>
   <v>      -0.00000000       0.00000000       2.60264693 </v>
  </varray>
  <kpoints>
   <generation param="Gamma">
    <v type="int" name="divisions">       4        4        4 </v>
    <v name="usershift">      0.00000000       0.00000000       0.00000000 </v>
    <v name="genvec1">      0.25000000       0.00000000       0.00000000 </v>
    <v name="genvec2">      0.00000000       0.25000000       0.00000000 </v>
    <v name="genvec3">      0.00000000       0.00000000       0.25000000 </v>
    <v name="shift">      0.00000000       0.00000000       0.00000000 </v>
   </generation>
   <varray name="kpointlist" >
    <v>       0.00000000       0.00000000       0.00000000 </v>
    <v>       0.25000000       0.00000000       0.00000000 </v>
    <v>       0.00000000       0.25000000       0.00000000 </v>
    <v>       0.50000000       0.00000000       0.00000000 </v>
    <v>       0.00000000       0.50000000       0.00000000 </v>
    <v>       0.25000000       0.25000000       0.00000000 </v>
    <v>       0.50000000       0.25000000       0.00000000 </v>
    <v>       0.00000000       0.00000000       0.25000000 </v>
    <v>       0.25000000       0.00000000       0.25000000 </v>
    <v>       0.00000000       0.25000000       0.25000000 </v>
    <v>      -0.25000000       0.00000000       0.25000000 </v>
    <v>       0.00000000      -0.25000000       0.25000000 </v>
    <v>       0.50000000       0.00000000       0.25000000 </v>
    <v>       0.00000000       0.50000000       0.25000000 </v>
    <v>       0.25000000       0.25000000       0.25000000 </v>
    <v>       0.50000000       0.25000000       0.25000000 </v>
    <v>      -0.25000000      -0.25000000       0.25000000 </v>
    <v>       0.00000000       0.00000000       0.50000000 </v>
    <v>       0.25000000       0.00000000       0.50000000 </v>
    <v>       0.00000000       0.25000000       0.50000000 </v>
    <v>       0.50000000       0.00000000       0.50000000 </v>
    <v>       0.00000000       0.50000000       0.50000000 </v>
    <v>       0.25000000       0.25000000       0.50000000 </v>
    <v>       0.50000000       0.25000000       0.50000000 </v>
   </varray>
   <varray name="weights" >
    <v>       0.01562500 </v>
    <v>       0.06250000 </v>
    <v>       0.03125000 </v>
    <v>       0.03125000 </v>
    <v>       0.01562500 </v>
    <v>       0.06250000 </v>
    <v>       0.03125000 </v>
    <v>       0.03125000 </v>
    <v>       0.06250000 </v>
    <v>       0.03125000 </v>
    <v>       0.06250000 </v>
    <v>       0.03125000 </v>
    <v>       0.06250000 </v>
    <v>       0.03125000 </v>
    <v>       0.06250000 </v>
    <v>       0.06250000 </v>
    <v>       0.06250000 </v>
    <v>       0.01562500 </v>
    <v>       0.06250000 </v>
    <v>       0.03125000 </v>
    <v>       0.03125000 </v>
    <v>       0.01562500 </v>
    <v>       0.06250000 </v>
    <v>       0.03125000 </v>
   </varray>
  </kpoints>
  <scstep>
   <time name="total">    1.73    1.25</time>
   <energy>
    <i name="e_fr_energy">     -0.48279559 </i>
    <i name="e_wo_entrp">     -0.48279559 </i>
    <i name="e_0_energy">     -0.48279559 </i>
   </energy>
  </scstep>
  <scstep>
   <time name="total">    1.78    1.29</time>
   <energy>
    <i name="e_fr_energy">     -0.48502324 </i>
    <i name="e_wo_entrp">     -0.48502324 </i>
    <i name="e_0_energy">     -0.48502324 </i>
   </energy>
  </scstep>
  <scstep>
   <time name="total">    1.80    1.30</time>
   <energy>
    <i name="e_fr_energy">     -0.46470478 </i>
    <i name="e_wo_entrp">     -0.46470478 </i>
    <i name="e_0_energy">     -0.46470478 </i>
   </energy>
  </scstep>
  <scstep>
   <time name="total">    1.80    1.30</time>
   <energy>
    <i name="e_fr_energy">     -0.47579610 </i>
    <i name="e_wo_entrp">     -0.47579610 </i>
    <i name="e_0_energy">     -0.47579610 </i>
   </energy>
  </scstep>
  <scstep>
   <time name="total">    1.79    1.29</time>
   <energy>
    <i name="e_fr_energy">     -0.49350627 </i>
    <i name="e_wo_entrp">     -0.49350627 </i>
    <i name="e_0_energy">     -0.49350627 </i>
   </energy>
  </scstep>
  <scstep>
   <time name="total">    1.78    1.28</time>
   <energy>
    <i name="e_fr_energy">     -0.49641221 </i>
    <i name="e_wo_entrp">     -0.49641221 </i>
    <i name="e_0_energy">     -0.49641221 </i>
   </energy>
  </scstep>
  <scstep>
   <time name="total">    1.81    1.31</time>
   <energy>
    <i name="e_fr_energy">     -0.49666370 </i>
    <i name="e_wo_entrp">     -0.49666370 </i>
    <i name="e_0_energy">     -0.49666370 </i>
   </energy>
  </scstep>
  <scstep>
   <time name="total">    1.80    1.30</time>
   <energy>
    <i name="e_fr_energy">     -0.49689369 </i>
    <i name="e_wo_entrp">     -0.49689369 </i>
    <i name="e_0_energy">     -0.49689369 </i>
   </energy>
  </scstep>
  <scstep>
   <time name="total">    1.81    1.31</time>
   <energy>
    <i name="e_fr_energy">     -0.49695444 </i>
    <i name="e_wo_entrp">     -0.49695444 </i>
    <i name="e_0_energy">     -0.49695444 </i>
   </energy>
  </scstep>
  <scstep>
   <time name="total">    1.81    1.31</time>
   <energy>
    <i name="e_fr_energy">     -0.49695062 </i>
    <i name="e_wo_entrp">     -0.49695062 </i>
    <i name="e_0_energy">     -0.49695062 </i>
   </energy>
  </scstep>
  <scstep>
   <time name="total">    1.81    1.31</time>
   <energy>
    <i name="e_fr_energy">     -0.49695161 </i>
    <i name="e_wo_entrp">     -0.49695161 </i>
    <i name="e_0_energy">     -0.49695161 </i>
   </energy>
  </scstep>
  <scstep>
   <time name="total">    1.77    1.27</time>
   <energy>
    <i name="e_fr_energy">     -0.49695164 </i>
    <i name="e_wo_entrp">     -0.49695164 </i>
    <i name="e_0_energy">     -0.49695164 </i>
   </energy>
  </scstep>
  <scstep>
   <time name="total">    1.77    1.27</time>
   <energy>
    <i name="e_fr_energy">     -0.49695159 </i>
    <i name="e_wo_entrp">     -0.49695159 </i>
    <i name="e_0_energy">     -0.49695159 </i>
   </energy>
  </scstep>
  <scstep>
   <time name="total">    1.78    1.28</time>
   <energy>
    <i name="e_fr_energy">     -0.49695156 </i>
    <i name="e_wo_entrp">     -0.49695156 </i>
    <i name="e_0_energy">     -0.49695156 </i>
   </energy>
  </scstep>
  <kpoints>
   <generation param="Gamma">
    <v type="int" name="divisions">       4        4        4 </v>
    <v name="usershift">      0.00000000       0.00000000       0.00000000 </v>
    <v name="genvec1">      0.25000000       0.00000000       0.00000000 </v>
    <v name="genvec2">      0.00000000       0.25000000       0.00000000 </v>
    <v name="genvec3">      0.00000000       0.00000000       0.25000000 </v>
    <v name="shift">      0.00000000       0.00000000       0.00000000 </v>
   </generation>
   <varray name="kpointlist" >
    <v>       0.00000000       0.00000000       0.00000000 </v>
    <v>       0.25000000       0.00000000       0.00000000 </v>
    <v>       0.00000000       0.25000000       0.00000000 </v>
    <v>      -0.25000000       0.25000000       0.00000000 </v>
    <v>       0.50000000       0.00000000       0.00000000 </v>
    <v>       0.00000000       0.50000000       0.00000000 </v>
    <v>       0.50000000       0.50000000       0.00000000 </v>
    <v>       0.25000000       0.25000000       0.00000000 </v>
    <v>      -0.25000000       0.50000000       0.00000000 </v>
    <v>       0.50000000       0.25000000       0.00000000 </v>
    <v>       0.00000000       0.00000000       0.25000000 </v>
    <v>       0.25000000       0.00000000       0.25000000 </v>
    <v>       0.00000000       0.25000000       0.25000000 </v>
    <v>      -0.25000000       0.25000000       0.25000000 </v>
    <v>      -0.25000000       0.00000000       0.25000000 </v>
    <v>       0.00000000      -0.25000000       0.25000000 </v>
    <v>       0.25000000      -0.25000000       0.25000000 </v>
    <v>       0.50000000       0.00000000       0.25000000 </v>
    <v>       0.00000000       0.50000000       0.25000000 </v>
    <v>       0.50000000       0.50000000       0.25000000 </v>
    <v>       0.25000000       0.25000000       0.25000000 </v>
    <v>      -0.25000000       0.50000000       0.25000000 </v>
    <v>       0.50000000       0.25000000       0.25000000 </v>
    <v>      -0.25000000      -0.25000000       0.25000000 </v>
    <v>       0.25000000       0.50000000       0.25000000 </v>
    <v>       0.50000000      -0.25000000       0.25000000 </v>
    <v>       0.00000000       0.00000000       0.50000000 </v>
    <v>       0.25000000       0.00000000       0.50000000 </v>
    <v>       0.00000000       0.25000000       0.50000000 </v>
    <v>      -0.25000000       0.25000000       0.50000000 </v>
    <v>       0.50000000       0.00000000       0.50000000 </v>
    <v>       0.00000000       0.50000000       0.50000000 </v>
    <v>       0.50000000       0.50000000       0.50000000 </v>
    <v>       0.25000000       0.25000000       0.50000000 </v>
    <v>      -0.25000000       0.50000000       0.50000000 </v>
    <v>       0.50000000       0.25000000       0.50000000 </v>
   </varray>
   <varray name="weights" >
    <v>       0.01562500 </v>
    <v>       0.03125000 </v>
    <v>       0.03125000 </v>
    <v>       0.03125000 </v>
    <v>       0.01562500 </v>
    <v>       0.01562500 </v>
    <v>       0.01562500 </v>
    <v>       0.03125000 </v>
    <v>       0.03125000 </v>
    <v>       0.03125000 </v>
    <v>       0.03125000 </v>
    <v>       0.03125000 </v>
    <v>       0.03125000 </v>
    <v>       0.03125000 </v>
    <v>       0.03125000 </v>
    <v>       0.03125000 </v>
    <v>       0.03125000 </v>
    <v>       0.03125000 </v>
    <v>       0.03125000 </v>
    <v>       0.03125000 </v>
    <v>       0.03125000 </v>
    <v>       0.03125000 </v>
    <v>       0.03125000 </v>
    <v>       0.03125000 </v>
    <v>       0.03125000 </v>
    <v>       0.03125000 </v>
    <v>       0.01562500 </v>
    <v>       0.03125000 </v>
    <v>       0.03125000 </v>
    <v>       0.03125000 </v>
    <v>       0.01562500 </v>
    <v>       0.01562500 </v>
    <v>       0.01562500 </v>
    <v>       0.03125000 </v>
    <v>       0.03125000 </v>
    <v>       0.03125000 </v>
   </varray>
  </kpoints>
  <scstep>
   <time name="total">    2.28    1.81</time>
   <energy>
    <i name="e_fr_energy">     -0.48283775 </i>
    <i name="e_wo_entrp">     -0.48283775 </i>
    <i name="e_0_energy">     -0.48283775 </i>
   </energy>
  </scstep>
  <scstep>
   <time name="total">    2.37    1.88</time>
   <energy>
    <i name="e_fr_energy">     -0.48502150 </i>
    <i name="e_wo_entrp">     -0.48502150 </i>
    <i name="e_0_energy">     -0.48502150 </i>
   </energy>
  </scstep>
  <scstep>
   <time name="total">    2.38    1.89</time>
   <energy>
    <i name="e_fr_energy">     -0.46489472 </i>
    <i name="e_wo_entrp">     -0.46489472 </i>
    <i name="e_0_energy">     -0.46489472 </i>
   </energy>
  </scstep>
  <scstep>
   <time name="total">    2.39    1.90</time>
   <energy>
    <i name="e_fr_energy">     -0.47577057 </i>
    <i name="e_wo_entrp">     -0.47577057 </i>
    <i name="e_0_energy">     -0.47577057 </i>
   </energy>
  </scstep>
  <scstep>
   <time name="total">    2.38    1.89</time>
   <energy>
    <i name="e_fr_energy">     -0.49345941 </i>
    <i name="e_wo_entrp">     -0.49345941 </i>
    <i name="e_0_energy">     -0.49345941 </i>
   </energy>
  </scstep>
  <scstep>
   <time name="total">    2.36    1.86</time>
   <energy>
    <i name="e_fr_energy">     -0.49637803 </i>
    <i name="e_wo_entrp">     -0.49637803 </i>
    <i name="e_0_energy">     -0.49637803 </i>
   </energy>
  </scstep>
  <scstep>
   <time name="total">    2.40    1.91</time>
   <energy>
    <i name="e_fr_energy">     -0.49662104 </i>
    <i name="e_wo_entrp">     -0.49662104 </i>
    <i name="e_0_energy">     -0.49662104 </i>
   </energy>
  </scstep>
  <scstep>
   <time name="total">    2.41    1.91</time>
   <energy>
    <i name="e_fr_energy">     -0.49685055 </i>
    <i name="e_wo_entrp">     -0.49685055 </i>
    <i name="e_0_energy">     -0.49685055 </i>
   </energy>
  </scstep>
  <scstep>
   <time name="total">    2.41    1.92</time>
   <energy>
    <i name="e_fr_energy">     -0.49691586 </i>
    <i name="e_wo_entrp">     -0.49691586 </i>
    <i name="e_0_energy">     -0.49691586 </i>
   </energy>
  </scstep>
  <scstep>
   <time name="total">    2.41    1.91</time>
   <energy>
    <i name="e_fr_energy">     -0.49691085 </i>
    <i name="e_wo_entrp">     -0.49691085 </i>
    <i name="e_0_energy">     -0.49691085 </i>
   </energy>
  </scstep>
  <scstep>
   <time name="total">    2.41    1.91</time>
   <energy>
    <i name="e_fr_energy">     -0.49691191 </i>
    <i name="e_wo_entrp">     -0.49691191 </i>
    <i name="e_0_energy">     -0.49691191 </i>
   </energy>
  </scstep>
  <scstep>
   <time name="total">    2.35    1.85</time>
   <energy>
    <i name="e_fr_energy">     -0.49691198 </i>
    <i name="e_wo_entrp">     -0.49691198 </i>
    <i name="e_0_energy">     -0.49691198 </i>
   </energy>
  </scstep>
  <scstep>
   <time name="total">    2.37    1.87</time>
   <energy>
    <i name="e_fr_energy">     -0.49691202 </i>
    <i name="e_wo_entrp">     -0.49691202 </i>
    <i name="e_0_energy">     -0.49691202 </i>
   </energy>
  </scstep>
  <scstep>
   <time name="total">    2.37    1.88</time>
   <energy>
    <i name="e_fr_energy">     -0.49691194 </i>
    <i name="e_wo_entrp">     -0.49691194 </i>
    <i name="e_0_energy">     -0.49691194 </i>
   </energy>
  </scstep>
  <kpoints>
   <generation param="Gamma">
    <v type="int" name="divisions">       4        4        4 </v>
    <v name="usershift">      0.00000000       0.00000000       0.00000000 </v>
    <v name="genvec1">      0.25000000       0.00000000       0.00000000 </v>
    <v name="genvec2">      0.00000000       0.25000000       0.00000000 </v>
    <v name="genvec3">      0.00000000       0.00000000       0.25000000 </v>
    <v name="shift">      0.00000000       0.00000000       0.00000000 </v>
   </generation>
   <varray name="kpointlist" >
    <v>       0.00000000       0.00000000       0.00000000 </v>
    <v>       0.25000000       0.00000000       0.00000000 </v>
    <v>       0.50000000       0.00000000       0.00000000 </v>
    <v>       0.25000000       0.25000000       0.00000000 </v>
    <v>       0.00000000       0.00000000       0.25000000 </v>
    <v>       0.25000000       0.00000000       0.25000000 </v>
    <v>       0.00000000       0.25000000       0.25000000 </v>
    <v>       0.50000000       0.00000000       0.25000000 </v>
    <v>       0.25000000       0.25000000       0.25000000 </v>
    <v>      -0.25000000       0.50000000       0.25000000 </v>
    <v>       0.00000000       0.00000000       0.50000000 </v>
    <v>       0.25000000       0.00000000       0.50000000 </v>
    <v>       0.50000000       0.00000000       0.50000000 </v>
    <v>       0.25000000       0.25000000       0.50000000 </v>
   </varray>
   <varray name="weights" >
    <v>       0.01562500 </v>
    <v>       0.09375000 </v>
    <v>       0.04687500 </v>
    <v>       0.09375000 </v>
    <v>       0.03125000 </v>
    <v>       0.09375000 </v>
    <v>       0.09375000 </v>
    <v>       0.09375000 </v>
    <v>       0.09375000 </v>
    <v>       0.09375000 </v>
    <v>       0.01562500 </v>
    <v>       0.09375000 </v>
    <v>       0.04687500 </v>
    <v>       0.09375000 </v>
   </varray>
  </kpoints>
  <scstep>
   <time name="total">    1.28    0.79</time>
   <energy>
    <i name="e_fr_energy">     -0.48728005 </i>
    <i name="e_wo_entrp">     -0.48728005 </i>
    <i name="e_0_energy">     -0.48728005 </i>
   </energy>
  </scstep>
  <scstep>
   <time name="total">    1.32    0.80</time>
   <energy>
    <i name="e_fr_energy">     -0.48930311 </i>
    <i name="e_wo_entrp">     -0.48930311 </i>
    <i name="e_0_energy">     -0.48930311 </i>
   </energy>
  </scstep>
  <scstep>
   <time name="total">    1.31    0.81</time>
   <energy>
    <i name="e_fr_energy">     -0.47409549 </i>
    <i name="e_wo_entrp">     -0.47409549 </i>
    <i name="e_0_energy">     -0.47409549 </i>
   </energy>
  </scstep>
  <scstep>
   <time name="total">    1.31    0.81</time>
   <energy>
    <i name="e_fr_energy">     -0.48732205 </i>
    <i name="e_wo_entrp">     -0.48732205 </i>
    <i name="e_0_energy">     -0.48732205 </i>
   </energy>
  </scstep>
  <scstep>
   <time name="total">    1.31    0.81</time>
   <energy>
    <i name="e_fr_energy">     -0.50352118 </i>
    <i name="e_wo_entrp">     -0.50352118 </i>
    <i name="e_0_energy">     -0.50352118 </i>
   </energy>
  </scstep>
  <scstep>
   <time name="total">    1.30    0.79</time>
   <energy>
    <i name="e_fr_energy">     -0.50635937 </i>
    <i name="e_wo_entrp">     -0.50635937 </i>
    <i name="e_0_energy">     -0.50635937 </i>
   </energy>
  </scstep>
  <scstep>
   <time name="total">    1.32    0.81</time>
   <energy>
    <i name="e_fr_energy">     -0.50660284 </i>
    <i name="e_wo_entrp">     -0.50660284 </i>
    <i name="e_0_energy">     -0.50660284 </i>
   </energy>
  </scstep>
  <scstep>
   <time name="total">    1.31    0.81</time>
   <energy>
    <i name="e_fr_energy">     -0.50686808 </i>
    <i name="e_wo_entrp">     -0.50686808 </i>
    <i name="e_0_energy">     -0.50686808 </i>
   </energy>
  </scstep>
  <scstep>
   <time name="total">    1.35    0.83</time>
   <energy>
    <i name="e_fr_energy">     -0.50689071 </i>
    <i name="e_wo_entrp">     -0.50689071 </i>
    <i name="e_0_energy">     -0.50689071 </i>
   </energy>
  </scstep>
  <scstep>
   <time name="total">    1.34    0.83</time>
   <energy>
    <i name="e_fr_energy">     -0.50689189 </i>
    <i name="e_wo_entrp">     -0.50689189 </i>
    <i name="e_0_energy">     -0.50689189 </i>
   </energy>
  </scstep>
  <scstep>
   <time name="total">    1.33    0.82</time>
   <energy>
    <i name="e_fr_energy">     -0.50689098 </i>
    <i name="e_wo_entrp">     -0.50689098 </i>
    <i name="e_0_energy">     -0.50689098 </i>
   </energy>
  </scstep>
  <scstep>
   <time name="total">    1.28    0.78</time>
   <energy>
    <i name="e_fr_energy">     -0.50689116 </i>
    <i name="e_wo_entrp">     -0.50689116 </i>
    <i name="e_0_energy">     -0.50689116 </i>
   </energy>
  </scstep>
  <scstep>
   <time name="total">    1.30    0.80</time>
   <energy>
    <i name="e_fr_energy">     -0.50689114 </i>
    <i name="e_wo_entrp">     -0.50689114 </i>
    <i name="e_0_energy">     -0.50689114 </i>
   </energy>
  </scstep>
  <scstep>
   <time name="total">    1.31    0.78</time>
   <energy>
    <i name="e_fr_energy">     -0.50689116 </i>
    <i name="e_wo_entrp">     -0.50689116 </i>
    <i name="e_0_energy">     -0.50689116 </i>
   </energy>
  </scstep>
  <kpoints>
   <generation param="Gamma">
    <v type="int" name="divisions">       4        4        4 </v>
    <v name="usershift">      0.00000000       0.00000000       0.00000000 </v>
    <v name="genvec1">      0.25000000       0.00000000       0.00000000 </v>
    <v name="genvec2">      0.00000000       0.25000000       0.00000000 </v>
    <v name="genvec3">      0.00000000       0.00000000       0.25000000 </v>
    <v name="shift">      0.00000000       0.00000000       0.00000000 </v>
   </generation>
   <varray name="kpointlist" >
    <v>       0.00000000       0.00000000       0.00000000 </v>
    <v>       0.25000000       0.00000000       0.00000000 </v>
    <v>       0.50000000       0.00000000       0.00000000 </v>
    <v>       0.25000000       0.25000000       0.00000000 </v>
    <v>       0.00000000       0.00000000       0.25000000 </v>
    <v>       0.25000000       0.00000000       0.25000000 </v>
    <v>       0.00000000       0.25000000       0.25000000 </v>
    <v>       0.50000000       0.00000000       0.25000000 </v>
    <v>       0.25000000       0.25000000       0.25000000 </v>
    <v>       0.00000000       0.00000000       0.50000000 </v>
    <v>       0.25000000       0.00000000       0.50000000 </v>
    <v>       0.50000000       0.00000000       0.50000000 </v>
    <v>       0.25000000       0.25000000       0.50000000 </v>
   </varray>
   <varray name="weights" >
    <v>       0.01562500 </v>
    <v>       0.09375000 </v>
    <v>       0.04687500 </v>
    <v>       0.09375000 </v>
    <v>       0.03125000 </v>
    <v>       0.09375000 </v>
    <v>       0.09375000 </v>
    <v>       0.09375000 </v>
    <v>       0.18750000 </v>
    <v>       0.01562500 </v>
    <v>       0.09375000 </v>
    <v>       0.04687500 </v>
    <v>       0.09375000 </v>
   </varray>
  </kpoints>
  <varray name="dielectric_dft" >
   <v>       2.47984919       0.00000000       0.00000000 </v>
   <v>       0.00000000       2.47984919       0.00000000 </v>
   <v>      -0.00000000       0.00000000       2.51231680 </v>
  </varray>
  <varray name="epsilon" >
   <v>       2.47984919       0.00000000       0.00000000 </v>
   <v>       0.00000000       2.47984919       0.00000000 </v>
   <v>      -0.00000000       0.00000000       2.51231680 </v>
  </varray>
  <kpoints>
   <generation param="Gamma">
    <v type="int" name="divisions">       4        4        4 </v>
    <v name="usershift">      0.00000000       0.00000000       0.00000000 </v>
    <v name="genvec1">      0.25000000       0.00000000       0.00000000 </v>
    <v name="genvec2">      0.00000000       0.25000000       0.00000000 </v>
    <v name="genvec3">      0.00000000       0.00000000       0.25000000 </v>
    <v name="shift">      0.00000000       0.00000000       0.00000000 </v>
   </generation>
   <varray name="kpointlist" >
    <v>       0.00000000       0.00000000       0.00000000 </v>
    <v>       0.25000000       0.00000000       0.00000000 </v>
    <v>       0.50000000       0.00000000       0.00000000 </v>
    <v>       0.25000000       0.25000000       0.00000000 </v>
    <v>       0.00000000       0.00000000       0.25000000 </v>
    <v>       0.25000000       0.00000000       0.25000000 </v>
    <v>       0.00000000       0.25000000       0.25000000 </v>
    <v>       0.50000000       0.00000000       0.25000000 </v>
    <v>       0.25000000       0.25000000       0.25000000 </v>
    <v>       0.00000000       0.00000000       0.50000000 </v>
    <v>       0.25000000       0.00000000       0.50000000 </v>
    <v>       0.50000000       0.00000000       0.50000000 </v>
    <v>       0.25000000       0.25000000       0.50000000 </v>
   </varray>
   <varray name="weights" >
    <v>       0.01562500 </v>
    <v>       0.09375000 </v>
    <v>       0.04687500 </v>
    <v>       0.09375000 </v>
    <v>       0.03125000 </v>
    <v>       0.09375000 </v>
    <v>       0.09375000 </v>
    <v>       0.09375000 </v>
    <v>       0.18750000 </v>
    <v>       0.01562500 </v>
    <v>       0.09375000 </v>
    <v>       0.04687500 </v>
    <v>       0.09375000 </v>
   </varray>
  </kpoints>
  <array name="born_charges" >
   <dimension dim="1">ion</dimension>
   <set>
    <v>       2.97996603       0.00000000      -0.00000000 </v>
    <v>       0.00000000       3.62153285      -0.32089556 </v>
    <v>       0.00000000       0.27764891       3.42578153 </v>
   </set>
   <set>
    <v>       3.46114114       0.27780658       0.27790371 </v>
    <v>       0.27780658       3.14035773       0.16044778 </v>
    <v>      -0.24045101      -0.13882446       3.42578153 </v>
   </set>
   <set>
    <v>       3.46114114      -0.27780658      -0.27790371 </v>
    <v>      -0.27780658       3.14035773       0.16044778 </v>
    <v>       0.24045101      -0.13882446       3.42578153 </v>
   </set>
   <set>
    <v>      -1.31101649      -0.49346031      -0.31012595 </v>
    <v>      -0.43600640      -1.98973294      -0.67913795 </v>
    <v>      -0.24346531      -0.72172942      -1.71289077 </v>
   </set>
   <set>
    <v>      -2.22252472      -0.09025312       0.74321369 </v>
    <v>      -0.03279921      -1.07822471       0.07099202 </v>
    <v>       0.74676867       0.15001757      -1.71289077 </v>
   </set>
   <set>
    <v>      -1.41758294       0.49753256      -0.43308774 </v>
    <v>       0.55498648      -1.88316650       0.60814592 </v>
    <v>      -0.50330336       0.57171185      -1.71289077 </v>
   </set>
   <set>
    <v>      -1.31101649       0.49346031       0.31012595 </v>
    <v>       0.43600640      -1.98973294      -0.67913795 </v>
    <v>       0.24346531      -0.72172942      -1.71289077 </v>
   </set>
   <set>
    <v>      -2.22252472       0.09025312      -0.74321369 </v>
    <v>       0.03279921      -1.07822471       0.07099202 </v>
    <v>      -0.74676867       0.15001757      -1.71289077 </v>
   </set>
   <set>
    <v>      -1.41758294      -0.49753256       0.43308774 </v>
    <v>      -0.55498648      -1.88316650       0.60814592 </v>
    <v>       0.50330336       0.57171185      -1.71289077 </v>
   </set>
  </array>
  <time name="totalsc">  215.26  123.89</time>
  <eigenvalues>
   <array>
    <dimension dim="1">band</dimension>
    <dimension dim="2">kpoint</dimension>
    <dimension dim="3">spin</dimension>
    <field>eigene</field>
    <field>occ</field>
    <set>
     <set comment="spin 1">
      <set comment="kpoint 1">
       <r>  -18.1746    1.0000 </r>
       <r>  -16.6223    1.0000 </r>
       <r>  -16.6223    1.0000 </r>
       <r>  -15.9545    1.0000 </r>
       <r>  -15.9431    1.0000 </r>
       <r>  -15.9431    1.0000 </r>
       <r>   -6.8826    1.0000 </r>
       <r>   -6.8826    1.0000 </r>
       <r>   -4.1499    1.0000 </r>
       <r>   -4.0635    1.0000 </r>
       <r>   -3.9152    1.0000 </r>
       <r>   -3.9152    1.0000 </r>
       <r>   -1.6877    1.0000 </r>
       <r>   -1.6877    1.0000 </r>
       <r>   -1.3744    1.0000 </r>
       <r>   -1.1532    1.0000 </r>
       <r>   -0.1585    1.0000 </r>
       <r>   -0.1585    1.0000 </r>
       <r>   -0.0996    1.0000 </r>
       <r>    0.2632    1.0000 </r>
       <r>    0.2632    1.0000 </r>
       <r>    0.4598    1.0000 </r>
       <r>    1.0039    1.0000 </r>
       <r>    1.0039    1.0000 </r>
       <r>    7.3266    0.0000 </r>
       <r>   10.6101    0.0000 </r>
       <r>   10.6101    0.0000 </r>
       <r>   11.2368    0.0000 </r>
       <r>   11.2368    0.0000 </r>
      </set>
      <set comment="kpoint 2">
       <r>  -17.9906    1.0000 </r>
       <r>  -16.8220    1.0000 </r>
       <r>  -16.5955    1.0000 </r>
       <r>  -16.0209    1.0000 </r>
       <r>  -15.9768    1.0000 </r>
       <r>  -15.9439    1.0000 </r>
       <r>   -6.9601    1.0000 </r>
       <r>   -6.5124    1.0000 </r>
       <r>   -4.2209    1.0000 </r>
       <r>   -4.1570    1.0000 </r>
       <r>   -4.0336    1.0000 </r>
       <r>   -3.6233    1.0000 </r>
       <r>   -1.8743    1.0000 </r>
       <r>   -1.5585    1.0000 </r>
       <r>   -1.3477    1.0000 </r>
       <r>   -0.8990    1.0000 </r>
       <r>   -0.6994    1.0000 </r>
       <r>   -0.2411    1.0000 </r>
       <r>   -0.1616    1.0000 </r>
       <r>    0.1799    1.0000 </r>
       <r>    0.2771    1.0000 </r>
       <r>    0.4209    1.0000 </r>
       <r>    1.0532    1.0000 </r>
       <r>    1.1414    1.0000 </r>
       <r>    8.2359    0.0000 </r>
       <r>   10.6726    0.0000 </r>
       <r>   10.7217    0.0000 </r>
       <r>   11.2084    0.0000 </r>
       <r>   11.4846    0.0000 </r>
      </set>
      <set comment="kpoint 3">
       <r>  -17.6678    1.0000 </r>
       <r>  -17.1843    1.0000 </r>
       <r>  -16.5663    1.0000 </r>
       <r>  -16.0471    1.0000 </r>
       <r>  -16.0025    1.0000 </r>
       <r>  -15.9694    1.0000 </r>
       <r>   -7.0333    1.0000 </r>
       <r>   -6.0465    1.0000 </r>
       <r>   -4.5599    1.0000 </r>
       <r>   -4.0985    1.0000 </r>
       <r>   -4.0907    1.0000 </r>
       <r>   -3.2867    1.0000 </r>
       <r>   -1.8245    1.0000 </r>
       <r>   -1.6231    1.0000 </r>
       <r>   -1.4367    1.0000 </r>
       <r>   -1.0035    1.0000 </r>
       <r>   -0.7932    1.0000 </r>
       <r>   -0.4805    1.0000 </r>
       <r>   -0.2888    1.0000 </r>
       <r>    0.1949    1.0000 </r>
       <r>    0.2803    1.0000 </r>
       <r>    0.5578    1.0000 </r>
       <r>    1.0149    1.0000 </r>
       <r>    1.2411    1.0000 </r>
       <r>    9.6392    0.0000 </r>
       <r>   10.3736    0.0000 </r>
       <r>   10.9713    0.0000 </r>
       <r>   10.9935    0.0000 </r>
       <r>   11.9985    0.0000 </r>
      </set>
      <set comment="kpoint 4">
       <r>  -17.6782    1.0000 </r>
       <r>  -17.1541    1.0000 </r>
       <r>  -16.5968    1.0000 </r>
       <r>  -16.0425    1.0000 </r>
       <r>  -16.0000    1.0000 </r>
       <r>  -15.9664    1.0000 </r>
       <r>   -7.0615    1.0000 </r>
       <r>   -5.9087    1.0000 </r>
       <r>   -4.8523    1.0000 </r>
       <r>   -4.0765    1.0000 </r>
       <r>   -3.9345    1.0000 </r>
       <r>   -3.2948    1.0000 </r>
       <r>   -1.7841    1.0000 </r>
       <r>   -1.6298    1.0000 </r>
       <r>   -1.4665    1.0000 </r>
       <r>   -0.8979    1.0000 </r>
       <r>   -0.8489    1.0000 </r>
       <r>   -0.4286    1.0000 </r>
       <r>   -0.2435    1.0000 </r>
       <r>   -0.0114    1.0000 </r>
       <r>    0.2507    1.0000 </r>
       <r>    0.6672    1.0000 </r>
       <r>    0.9798    1.0000 </r>
       <r>    1.2628    1.0000 </r>
       <r>    9.4800    0.0000 </r>
       <r>   10.7411    0.0000 </r>
       <r>   10.7741    0.0000 </r>
       <r>   11.4439    0.0000 </r>
       <r>   11.5843    0.0000 </r>
      </set>
      <set comment="kpoint 5">
       <r>  -18.0493    1.0000 </r>
       <r>  -17.1824    1.0000 </r>
       <r>  -16.1715    1.0000 </r>
       <r>  -15.9570    1.0000 </r>
       <r>  -15.9563    1.0000 </r>
       <r>  -15.9230    1.0000 </r>
       <r>   -7.6560    1.0000 </r>
       <r>   -5.8709    1.0000 </r>
       <r>   -4.3713    1.0000 </r>
       <r>   -4.1843    1.0000 </r>
       <r>   -4.1306    1.0000 </r>
       <r>   -3.5578    1.0000 </r>
       <r>   -1.7682    1.0000 </r>
       <r>   -1.4427    1.0000 </r>
       <r>   -1.3096    1.0000 </r>
       <r>   -0.9489    1.0000 </r>
       <r>   -0.4246    1.0000 </r>
       <r>   -0.2948    1.0000 </r>
       <r>   -0.1683    1.0000 </r>
       <r>   -0.1607    1.0000 </r>
       <r>    0.1797    1.0000 </r>
       <r>    0.6310    1.0000 </r>
       <r>    1.0936    1.0000 </r>
       <r>    1.1790    1.0000 </r>
       <r>    7.9388    0.0000 </r>
       <r>   10.4157    0.0000 </r>
       <r>   10.6358    0.0000 </r>
       <r>   10.6470    0.0000 </r>
       <r>   11.6476    0.0000 </r>
      </set>
      <set comment="kpoint 6">
       <r>  -17.8821    1.0000 </r>
       <r>  -17.1585    1.0000 </r>
       <r>  -16.3570    1.0000 </r>
       <r>  -16.0159    1.0000 </r>
       <r>  -15.9944    1.0000 </r>
       <r>  -15.9412    1.0000 </r>
       <r>   -7.3315    1.0000 </r>
       <r>   -5.9278    1.0000 </r>
       <r>   -4.6351    1.0000 </r>
       <r>   -4.0973    1.0000 </r>
       <r>   -3.8339    1.0000 </r>
       <r>   -3.6593    1.0000 </r>
       <r>   -1.9403    1.0000 </r>
       <r>   -1.4339    1.0000 </r>
       <r>   -1.3074    1.0000 </r>
       <r>   -0.9665    1.0000 </r>
       <r>   -0.6455    1.0000 </r>
       <r>   -0.3040    1.0000 </r>
       <r>   -0.1683    1.0000 </r>
       <r>    0.0573    1.0000 </r>
       <r>    0.3193    1.0000 </r>
       <r>    0.4879    1.0000 </r>
       <r>    1.0114    1.0000 </r>
       <r>    1.1511    1.0000 </r>
       <r>    8.7100    0.0000 </r>
       <r>   10.4565    0.0000 </r>
       <r>   10.7332    0.0000 </r>
       <r>   10.9677    0.0000 </r>
       <r>   11.7003    0.0000 </r>
      </set>
      <set comment="kpoint 7">
       <r>  -17.8849    1.0000 </r>
       <r>  -17.1450    1.0000 </r>
       <r>  -16.3883    1.0000 </r>
       <r>  -16.0169    1.0000 </r>
       <r>  -15.9603    1.0000 </r>
       <r>  -15.9532    1.0000 </r>
       <r>   -7.3337    1.0000 </r>
       <r>   -5.9327    1.0000 </r>
       <r>   -4.6360    1.0000 </r>
       <r>   -4.1200    1.0000 </r>
       <r>   -3.8609    1.0000 </r>
       <r>   -3.5749    1.0000 </r>
       <r>   -1.8944    1.0000 </r>
       <r>   -1.3921    1.0000 </r>
       <r>   -1.3608    1.0000 </r>
       <r>   -1.1100    1.0000 </r>
       <r>   -0.6958    1.0000 </r>
       <r>   -0.2012    1.0000 </r>
       <r>   -0.1065    1.0000 </r>
       <r>    0.0394    1.0000 </r>
       <r>    0.3870    1.0000 </r>
       <r>    0.4119    1.0000 </r>
       <r>    0.9052    1.0000 </r>
       <r>    1.2524    1.0000 </r>
       <r>    8.6733    0.0000 </r>
       <r>   10.5775    0.0000 </r>
       <r>   10.8912    0.0000 </r>
       <r>   11.0269    0.0000 </r>
       <r>   11.5530    0.0000 </r>
      </set>
      <set comment="kpoint 8">
       <r>  -17.6309    1.0000 </r>
       <r>  -17.1646    1.0000 </r>
       <r>  -16.6359    1.0000 </r>
       <r>  -16.0538    1.0000 </r>
       <r>  -16.0088    1.0000 </r>
       <r>  -15.9600    1.0000 </r>
       <r>   -6.9597    1.0000 </r>
       <r>   -5.9827    1.0000 </r>
       <r>   -4.8557    1.0000 </r>
       <r>   -4.0822    1.0000 </r>
       <r>   -3.7971    1.0000 </r>
       <r>   -3.4670    1.0000 </r>
       <r>   -1.8863    1.0000 </r>
       <r>   -1.7949    1.0000 </r>
       <r>   -1.2430    1.0000 </r>
       <r>   -1.0516    1.0000 </r>
       <r>   -0.5822    1.0000 </r>
       <r>   -0.4829    1.0000 </r>
       <r>   -0.1356    1.0000 </r>
       <r>    0.1301    1.0000 </r>
       <r>    0.3577    1.0000 </r>
       <r>    0.5963    1.0000 </r>
       <r>    0.8241    1.0000 </r>
       <r>    1.1736    1.0000 </r>
       <r>    9.9148    0.0000 </r>
       <r>   10.4334    0.0000 </r>
       <r>   10.8849    0.0000 </r>
       <r>   11.3127    0.0000 </r>
       <r>   11.8057    0.0000 </r>
      </set>
      <set comment="kpoint 9">
       <r>  -17.6327    1.0000 </r>
       <r>  -17.1655    1.0000 </r>
       <r>  -16.6272    1.0000 </r>
       <r>  -16.0444    1.0000 </r>
       <r>  -16.0203    1.0000 </r>
       <r>  -15.9652    1.0000 </r>
       <r>   -6.9676    1.0000 </r>
       <r>   -5.8828    1.0000 </r>
       <r>   -5.0231    1.0000 </r>
       <r>   -4.0461    1.0000 </r>
       <r>   -3.7686    1.0000 </r>
       <r>   -3.4816    1.0000 </r>
       <r>   -1.9216    1.0000 </r>
       <r>   -1.6291    1.0000 </r>
       <r>   -1.4095    1.0000 </r>
       <r>   -0.9260    1.0000 </r>
       <r>   -0.6641    1.0000 </r>
       <r>   -0.4528    1.0000 </r>
       <r>   -0.0628    1.0000 </r>
       <r>    0.0806    1.0000 </r>
       <r>    0.3161    1.0000 </r>
       <r>    0.6049    1.0000 </r>
       <r>    0.8638    1.0000 </r>
       <r>    1.1287    1.0000 </r>
       <r>    9.7462    0.0000 </r>
       <r>   10.6661    0.0000 </r>
       <r>   10.9957    0.0000 </r>
       <r>   11.3782    0.0000 </r>
       <r>   11.5235    0.0000 </r>
      </set>
      <set comment="kpoint 10">
       <r>  -17.6963    1.0000 </r>
       <r>  -17.6963    1.0000 </r>
       <r>  -15.9954    1.0000 </r>
       <r>  -15.9596    1.0000 </r>
       <r>  -15.9596    1.0000 </r>
       <r>  -15.9136    1.0000 </r>
       <r>   -7.9466    1.0000 </r>
       <r>   -4.9433    1.0000 </r>
       <r>   -4.9433    1.0000 </r>
       <r>   -4.2613    1.0000 </r>
[...]
       <r>    1.2151    1.0000 </r>
       <r>    9.3110    0.0000 </r>
       <r>    9.3110    0.0000 </r>
       <r>   10.4361    0.0000 </r>
       <r>   10.9943    0.0000 </r>
       <r>   10.9943    0.0000 </r>
      </set>
      <set comment="kpoint 11">
       <r>  -17.6450    1.0000 </r>
       <r>  -17.5043    1.0000 </r>
       <r>  -16.2519    1.0000 </r>
       <r>  -16.0292    1.0000 </r>
       <r>  -15.9748    1.0000 </r>
       <r>  -15.9432    1.0000 </r>
       <r>   -7.5206    1.0000 </r>
       <r>   -5.3569    1.0000 </r>
       <r>   -5.0148    1.0000 </r>
       <r>   -4.0989    1.0000 </r>
       <r>   -3.9754    1.0000 </r>
       <r>   -3.4621    1.0000 </r>
       <r>   -1.7501    1.0000 </r>
       <r>   -1.7321    1.0000 </r>
       <r>   -1.2112    1.0000 </r>
       <r>   -0.9366    1.0000 </r>
       <r>   -0.7542    1.0000 </r>
       <r>   -0.2550    1.0000 </r>
       <r>   -0.1590    1.0000 </r>
       <r>    0.0411    1.0000 </r>
       <r>    0.1871    1.0000 </r>
       <r>    0.7967    1.0000 </r>
       <r>    0.8306    1.0000 </r>
       <r>    1.1405    1.0000 </r>
       <r>    9.6796    0.0000 </r>
       <r>    9.8405    0.0000 </r>
       <r>   10.7274    0.0000 </r>
       <r>   11.0284    0.0000 </r>
       <r>   11.3860    0.0000 </r>
      </set>
      <set comment="kpoint 12">
       <r>  -17.5898    1.0000 </r>
       <r>  -17.1437    1.0000 </r>
       <r>  -16.7075    1.0000 </r>
       <r>  -16.0756    1.0000 </r>
       <r>  -15.9943    1.0000 </r>
       <r>  -15.9599    1.0000 </r>
       <r>   -6.8798    1.0000 </r>
       <r>   -5.9161    1.0000 </r>
       <r>   -5.0492    1.0000 </r>
       <r>   -4.0004    1.0000 </r>
       <r>   -3.7085    1.0000 </r>
       <r>   -3.6190    1.0000 </r>
       <r>   -1.9319    1.0000 </r>
       <r>   -1.9250    1.0000 </r>
       <r>   -1.1444    1.0000 </r>
       <r>   -0.8304    1.0000 </r>
       <r>   -0.7493    1.0000 </r>
       <r>   -0.2765    1.0000 </r>
       <r>    0.0222    1.0000 </r>
       <r>    0.1875    1.0000 </r>
       <r>    0.3977    1.0000 </r>
       <r>    0.4048    1.0000 </r>
       <r>    0.6982    1.0000 </r>
       <r>    1.1187    1.0000 </r>
       <r>   10.2318    0.0000 </r>
       <r>   10.7279    0.0000 </r>
       <r>   11.0205    0.0000 </r>
       <r>   11.2018    0.0000 </r>
       <r>   11.5360    0.0000 </r>
      </set>
      <set comment="kpoint 13">
       <r>  -17.5778    1.0000 </r>
       <r>  -17.1884    1.0000 </r>
       <r>  -16.6548    1.0000 </r>
       <r>  -16.0641    1.0000 </r>
       <r>  -15.9938    1.0000 </r>
       <r>  -15.9934    1.0000 </r>
       <r>   -6.8601    1.0000 </r>
       <r>   -5.8730    1.0000 </r>
       <r>   -5.1569    1.0000 </r>
       <r>   -3.9010    1.0000 </r>
       <r>   -3.7984    1.0000 </r>
       <r>   -3.6195    1.0000 </r>
       <r>   -1.9756    1.0000 </r>
       <r>   -1.7483    1.0000 </r>
       <r>   -1.2655    1.0000 </r>
       <r>   -0.9022    1.0000 </r>
       <r>   -0.6242    1.0000 </r>
       <r>   -0.4239    1.0000 </r>
       <r>    0.1489    1.0000 </r>
       <r>    0.2545    1.0000 </r>
       <r>    0.3285    1.0000 </r>
       <r>    0.5709    1.0000 </r>
       <r>    0.7165    1.0000 </r>
       <r>    0.9230    1.0000 </r>
       <r>   10.1818    0.0000 </r>
       <r>   10.6539    0.0000 </r>
       <r>   10.9663    0.0000 </r>
       <r>   11.3073    0.0000 </r>
       <r>   11.7262    0.0000 </r>
      </set>
     </set>
    </set>
   </array>
  </eigenvalues>
  <separator name="orbital magnetization" >
   <v name="MAGDIPOLOUT">      0.00000000      0.00000000      0.00000000</v>
  </separator>
  <dos>
   <i name="efermi">      1.78330775 </i>
   <total>
    <array>
     <dimension dim="1">gridpoints</dimension>
     <dimension dim="2">spin</dimension>
     <field>energy</field>
     <field>total</field>
     <field>integrated</field>
     <set>
      <set comment="spin 1">
       <r>   -19.6832     0.0000     0.0000 </r>
       <r>   -19.5726     0.0000     0.0000 </r>
       <r>   -19.4620     0.0000     0.0000 </r>
       <r>   -19.3513     0.0000     0.0000 </r>
       <r>   -19.2407     0.0000     0.0000 </r>
       <r>   -19.1301     0.0000     0.0000 </r>
       <r>   -19.0194     0.0000     0.0000 </r>
       <r>   -18.9088     0.0000     0.0000 </r>
       <r>   -18.7982     0.0000     0.0000 </r>
       <r>   -18.6875     0.0000     0.0000 </r>
       <r>   -18.5769     0.0000     0.0000 </r>
       <r>   -18.4663     0.0000     0.0000 </r>
       <r>   -18.3556     0.0015     0.0002 </r>
       <r>   -18.2450     0.0455     0.0052 </r>
       <r>   -18.1344     0.2561     0.0335 </r>
       <r>   -18.0237     0.9595     0.1397 </r>
       <r>   -17.9131     2.1806     0.3809 </r>
       <r>   -17.8025     2.2489     0.6297 </r>
       <r>   -17.6918     3.1573     0.9790 </r>
       <r>   -17.5812     6.7063     1.7210 </r>
       <r>   -17.4705     3.7404     2.1348 </r>
       <r>   -17.3599     0.7679     2.2198 </r>
       <r>   -17.2493     1.6614     2.4036 </r>
       <r>   -17.1386     7.3281     3.2143 </r>
       <r>   -17.0280     4.7105     3.7354 </r>
       <r>   -16.9174     0.5617     3.7976 </r>
       <r>   -16.8067     0.9794     3.9060 </r>
       <r>   -16.6961     2.7279     4.2078 </r>
       <r>   -16.5855     6.4407     4.9203 </r>
       <r>   -16.4748     3.7757     5.3380 </r>
       <r>   -16.3642     1.9967     5.5589 </r>
       <r>   -16.2536     2.2070     5.8031 </r>
       <r>   -16.1429     2.9839     6.1332 </r>
       <r>   -16.0323    15.9198     7.8945 </r>
       <r>   -15.9217    27.1392    10.8970 </r>
       <r>   -15.8110     9.4094    11.9381 </r>
       <r>   -15.7004     0.5554    11.9995 </r>
       <r>   -15.5898     0.0045    12.0000 </r>
       <r>   -15.4791     0.0000    12.0000 </r>
       <r>   -15.3685     0.0000    12.0000 </r>
       <r>   -15.2579     0.0000    12.0000 </r>
       <r>   -15.1472     0.0000    12.0000 </r>
       <r>   -15.0366     0.0000    12.0000 </r>
       <r>   -14.9260     0.0000    12.0000 </r>
       <r>   -14.8153     0.0000    12.0000 </r>
       <r>   -14.7047     0.0000    12.0000 </r>
       <r>   -14.5941     0.0000    12.0000 </r>
       <r>   -14.4834     0.0000    12.0000 </r>
       <r>   -14.3728     0.0000    12.0000 </r>
       <r>   -14.2621     0.0000    12.0000 </r>
       <r>   -14.1515     0.0000    12.0000 </r>
       <r>   -14.0409     0.0000    12.0000 </r>
       <r>   -13.9302     0.0000    12.0000 </r>
       <r>   -13.8196     0.0000    12.0000 </r>
       <r>   -13.7090     0.0000    12.0000 </r>
       <r>   -13.5983     0.0000    12.0000 </r>
       <r>   -13.4877     0.0000    12.0000 </r>
       <r>   -13.3771     0.0000    12.0000 </r>
       <r>   -13.2664     0.0000    12.0000 </r>
       <r>   -13.1558     0.0000    12.0000 </r>
       <r>   -13.0452     0.0000    12.0000 </r>
       <r>   -12.9345     0.0000    12.0000 </r>
       <r>   -12.8239     0.0000    12.0000 </r>
       <r>   -12.7133     0.0000    12.0000 </r>
       <r>   -12.6026     0.0000    12.0000 </r>
       <r>   -12.4920     0.0000    12.0000 </r>
       <r>   -12.3814     0.0000    12.0000 </r>
       <r>   -12.2707     0.0000    12.0000 </r>
       <r>   -12.1601     0.0000    12.0000 </r>
       <r>   -12.0495     0.0000    12.0000 </r>
       <r>   -11.9388     0.0000    12.0000 </r>
       <r>   -11.8282     0.0000    12.0000 </r>
       <r>   -11.7176     0.0000    12.0000 </r>
       <r>   -11.6069     0.0000    12.0000 </r>
       <r>   -11.4963     0.0000    12.0000 </r>
       <r>   -11.3857     0.0000    12.0000 </r>
       <r>   -11.2750     0.0000    12.0000 </r>
       <r>   -11.1644     0.0000    12.0000 </r>
       <r>   -11.0537     0.0000    12.0000 </r>
       <r>   -10.9431     0.0000    12.0000 </r>
       <r>   -10.8325     0.0000    12.0000 </r>
       <r>   -10.7218     0.0000    12.0000 </r>
       <r>   -10.6112     0.0000    12.0000 </r>
       <r>   -10.5006     0.0000    12.0000 </r>
       <r>   -10.3899     0.0000    12.0000 </r>
       <r>   -10.2793     0.0000    12.0000 </r>
       <r>   -10.1687     0.0000    12.0000 </r>
       <r>   -10.0580     0.0000    12.0000 </r>
       <r>    -9.9474     0.0000    12.0000 </r>
       <r>    -9.8368     0.0000    12.0000 </r>
       <r>    -9.7261     0.0000    12.0000 </r>
       <r>    -9.6155     0.0000    12.0000 </r>
       <r>    -9.5049     0.0000    12.0000 </r>
       <r>    -9.3942     0.0000    12.0000 </r>
       <r>    -9.2836     0.0000    12.0000 </r>
       <r>    -9.1730     0.0000    12.0000 </r>
       <r>    -9.0623     0.0000    12.0000 </r>
       <r>    -8.9517     0.0000    12.0000 </r>
       <r>    -8.8411     0.0000    12.0000 </r>
       <r>    -8.7304     0.0000    12.0000 </r>
       <r>    -8.6198     0.0000    12.0000 </r>
       <r>    -8.5092     0.0000    12.0000 </r>
       <r>    -8.3985     0.0000    12.0000 </r>
       <r>    -8.2879     0.0000    12.0000 </r>
       <r>    -8.1773     0.0002    12.0000 </r>
       <r>    -8.0666     0.0125    12.0014 </r>
       <r>    -7.9560     0.1136    12.0140 </r>
       <r>    -7.8453     0.1368    12.0291 </r>
       <r>    -7.7347     0.0962    12.0397 </r>
       <r>    -7.6241     0.4256    12.0868 </r>
       <r>    -7.5134     0.9837    12.1957 </r>
       <r>    -7.4028     1.2362    12.3324 </r>
       <r>    -7.2922     1.9652    12.5499 </r>
       <r>    -7.1815     1.0047    12.6610 </r>
       <r>    -7.0709     1.4154    12.8176 </r>
       <r>    -6.9603     4.6672    13.3339 </r>
       <r>    -6.8496     4.7214    13.8563 </r>
       <r>    -6.7390     1.4723    14.0192 </r>
       <r>    -6.6284     0.1936    14.0406 </r>
       <r>    -6.5177     0.7122    14.1194 </r>
       <r>    -6.4071     0.7825    14.2060 </r>
       <r>    -6.2965     0.1138    14.2186 </r>
       <r>    -6.1858     0.0265    14.2215 </r>
       <r>    -6.0752     0.5374    14.2809 </r>
       <r>    -5.9646     3.4740    14.6653 </r>
       <r>    -5.8539     6.9649    15.4358 </r>
       <r>    -5.7433     2.9263    15.7596 </r>
       <r>    -5.6327     0.1942    15.7811 </r>
       <r>    -5.5220     0.0181    15.7831 </r>
       <r>    -5.4114     0.3576    15.8226 </r>
       <r>    -5.3008     0.9948    15.9327 </r>
       <r>    -5.1901     0.9135    16.0338 </r>
       <r>    -5.0795     2.2028    16.2775 </r>
       <r>    -4.9689     3.9132    16.7104 </r>
       <r>    -4.8582     2.9805    17.0401 </r>
       <r>    -4.7476     1.8654    17.2465 </r>
       <r>    -4.6369     1.8129    17.4471 </r>
       <r>    -4.5263     1.9873    17.6669 </r>
       <r>    -4.4157     0.6112    17.7346 </r>
       <r>    -4.3050     0.7555    17.8182 </r>
       <r>    -4.1944     3.1064    18.1618 </r>
       <r>    -4.0838     8.8662    19.1427 </r>
       <r>    -3.9731     9.6994    20.2158 </r>
       <r>    -3.8625     6.7068    20.9578 </r>
       <r>    -3.7519     6.7821    21.7082 </r>
       <r>    -3.6412     5.6832    22.3369 </r>
       <r>    -3.5306     5.7139    22.9691 </r>
       <r>    -3.4200     5.0478    23.5275 </r>
       <r>    -3.3093     2.6169    23.8171 </r>
       <r>    -3.1987     1.4123    23.9733 </r>
       <r>    -3.0881     0.2362    23.9994 </r>
       <r>    -2.9774     0.0050    24.0000 </r>
       <r>    -2.8668     0.0000    24.0000 </r>
       <r>    -2.7562     0.0000    24.0000 </r>
       <r>    -2.6455     0.0000    24.0000 </r>
       <r>    -2.5349     0.0000    24.0000 </r>
       <r>    -2.4243     0.0000    24.0000 </r>
       <r>    -2.3136     0.0000    24.0000 </r>
       <r>    -2.2030     0.0015    24.0002 </r>
       <r>    -2.0924     0.1622    24.0181 </r>
       <r>    -1.9817     2.6193    24.3079 </r>
       <r>    -1.8711     7.9435    25.1867 </r>
       <r>    -1.7605     8.1342    26.0866 </r>
       <r>    -1.6498     6.8291    26.8422 </r>
       <r>    -1.5392     5.3520    27.4343 </r>
       <r>    -1.4285     6.3535    28.1372 </r>
       <r>    -1.3179     8.4828    29.0757 </r>
       <r>    -1.2073     5.9582    29.7349 </r>
       <r>    -1.0966     3.8929    30.1656 </r>
       <r>    -0.9860     4.8395    30.7010 </r>
       <r>    -0.8754     8.3910    31.6293 </r>
       <r>    -0.7647     6.9595    32.3993 </r>
       <r>    -0.6541     7.3869    33.2165 </r>
       <r>    -0.5435     6.3158    33.9153 </r>
       <r>    -0.4328     6.2482    34.6065 </r>
       <r>    -0.3222     5.9523    35.2651 </r>
       <r>    -0.2116     8.0459    36.1552 </r>
       <r>    -0.1009     9.8618    37.2463 </r>
       <r>     0.0097     8.1522    38.1482 </r>
       <r>     0.1203     8.8734    39.1299 </r>
       <r>     0.2310     9.4718    40.1778 </r>
       <r>     0.3416    10.6867    41.3601 </r>
       <r>     0.4522     8.7669    42.3300 </r>
       <r>     0.5629     5.8218    42.9741 </r>
       <r>     0.6735     6.2828    43.6692 </r>
       <r>     0.7841     5.2617    44.2514 </r>
       <r>     0.8948     6.6604    44.9882 </r>
       <r>     1.0054     6.7061    45.7301 </r>
       <r>     1.1160     7.7978    46.5928 </r>
       <r>     1.2267     8.3211    47.5134 </r>
       <r>     1.3373     3.8231    47.9364 </r>
       <r>     1.4479     0.5607    47.9984 </r>
       <r>     1.5586     0.0140    48.0000 </r>
       <r>     1.6692     0.0000    48.0000 </r>
       <r>     1.7799     0.0000    48.0000 </r>
       <r>     1.8905     0.0000    48.0000 </r>
       <r>     2.0011     0.0000    48.0000 </r>
       <r>     2.1118     0.0000    48.0000 </r>
       <r>     2.2224     0.0000    48.0000 </r>
       <r>     2.3330     0.0000    48.0000 </r>
       <r>     2.4437     0.0000    48.0000 </r>
       <r>     2.5543     0.0000    48.0000 </r>
       <r>     2.6649     0.0000    48.0000 </r>
       <r>     2.7756     0.0000    48.0000 </r>
       <r>     2.8862     0.0000    48.0000 </r>
       <r>     2.9968     0.0000    48.0000 </r>
       <r>     3.1075     0.0000    48.0000 </r>
       <r>     3.2181     0.0000    48.0000 </r>
       <r>     3.3287     0.0000    48.0000 </r>
       <r>     3.4394     0.0000    48.0000 </r>
       <r>     3.5500     0.0000    48.0000 </r>
       <r>     3.6606     0.0000    48.0000 </r>
       <r>     3.7713     0.0000    48.0000 </r>
       <r>     3.8819     0.0000    48.0000 </r>
       <r>     3.9925     0.0000    48.0000 </r>
       <r>     4.1032     0.0000    48.0000 </r>
       <r>     4.2138     0.0000    48.0000 </r>
       <r>     4.3244     0.0000    48.0000 </r>
       <r>     4.4351     0.0000    48.0000 </r>
       <r>     4.5457     0.0000    48.0000 </r>
       <r>     4.6563     0.0000    48.0000 </r>
       <r>     4.7670     0.0000    48.0000 </r>
       <r>     4.8776     0.0000    48.0000 </r>
       <r>     4.9883     0.0000    48.0000 </r>
       <r>     5.0989     0.0000    48.0000 </r>
       <r>     5.2095     0.0000    48.0000 </r>
       <r>     5.3202     0.0000    48.0000 </r>
       <r>     5.4308     0.0000    48.0000 </r>
       <r>     5.5414     0.0000    48.0000 </r>
       <r>     5.6521     0.0000    48.0000 </r>
       <r>     5.7627     0.0000    48.0000 </r>
       <r>     5.8733     0.0000    48.0000 </r>
       <r>     5.9840     0.0000    48.0000 </r>
       <r>     6.0946     0.0000    48.0000 </r>
       <r>     6.2052     0.0000    48.0000 </r>
       <r>     6.3159     0.0000    48.0000 </r>
       <r>     6.4265     0.0000    48.0000 </r>
       <r>     6.5371     0.0000    48.0000 </r>
       <r>     6.6478     0.0000    48.0000 </r>
       <r>     6.7584     0.0000    48.0000 </r>
       <r>     6.8690     0.0000    48.0000 </r>
       <r>     6.9797     0.0000    48.0000 </r>
       <r>     7.0903     0.0001    48.0000 </r>
       <r>     7.2009     0.0106    48.0012 </r>
       <r>     7.3116     0.1068    48.0130 </r>
       <r>     7.4222     0.1401    48.0285 </r>
       <r>     7.5328     0.0244    48.0312 </r>
       <r>     7.6435     0.0005    48.0313 </r>
       <r>     7.7541     0.0025    48.0315 </r>
       <r>     7.8647     0.0808    48.0405 </r>
       <r>     7.9754     0.3109    48.0749 </r>
       <r>     8.0860     0.1890    48.0958 </r>
       <r>     8.1966     0.4719    48.1480 </r>
       <r>     8.3073     0.9394    48.2519 </r>
       <r>     8.4179     0.2570    48.2803 </r>
       <r>     8.5286     0.0514    48.2860 </r>
       <r>     8.6392     0.7587    48.3700 </r>
       <r>     8.7498     1.8652    48.5763 </r>
       <r>     8.8605     0.6873    48.6524 </r>
       <r>     8.9711     0.0350    48.6562 </r>
       <r>     9.0817     0.0005    48.6563 </r>
       <r>     9.1924     0.0261    48.6592 </r>
       <r>     9.3030     0.2410    48.6858 </r>
       <r>     9.4136     0.5515    48.7468 </r>
       <r>     9.5243     1.0603    48.8642 </r>
       <r>     9.6349     1.4048    49.0196 </r>
       <r>     9.7455     3.0111    49.3527 </r>
       <r>     9.8562     3.0220    49.6870 </r>
       <r>     9.9668     1.8085    49.8871 </r>
       <r>    10.0774     0.5673    49.9499 </r>
       <r>    10.1881     1.0267    50.0635 </r>
       <r>    10.2987     1.4019    50.2186 </r>
       <r>    10.4093     2.0121    50.4412 </r>
       <r>    10.5200     3.0962    50.7837 </r>
       <r>    10.6306     4.8993    51.3258 </r>
       <r>    10.7412     9.0509    52.3271 </r>
       <r>    10.8519     6.3010    53.0242 </r>
       <r>    10.9625     6.4172    53.7342 </r>
       <r>    11.0731     7.5205    54.5662 </r>
       <r>    11.1838     3.0890    54.9079 </r>
       <r>    11.2944     3.5769    55.3037 </r>
       <r>    11.4050     5.6244    55.9259 </r>
       <r>    11.5157     6.3396    56.6273 </r>
       <r>    11.6263     5.4175    57.2267 </r>
       <r>    11.7370     3.3728    57.5998 </r>
       <r>    11.8476     2.2086    57.8442 </r>
       <r>    11.9582     0.7750    57.9299 </r>
       <r>    12.0689     0.4980    57.9850 </r>
       <r>    12.1795     0.1311    57.9995 </r>
       <r>    12.2901     0.0044    58.0000 </r>
       <r>    12.4008     0.0000    58.0000 </r>
       <r>    12.5114     0.0000    58.0000 </r>
       <r>    12.6220     0.0000    58.0000 </r>
       <r>    12.7327     0.0000    58.0000 </r>
       <r>    12.8433     0.0000    58.0000 </r>
       <r>    12.9539     0.0000    58.0000 </r>
       <r>    13.0646     0.0000    58.0000 </r>
       <r>    13.1752     0.0000    58.0000 </r>
       <r>    13.2858     0.0000    58.0000 </r>
       <r>    13.3965     0.0000    58.0000 </r>
       <r>    13.5071     0.0000    58.0000 </r>
      </set>
     </set>
    </array>
   </total>
  </dos>
 </calculation>
 <structure name="finalpos" >
  <crystal>
   <varray name="basis" >
    <v>       4.87342988       0.00000000       0.00000000 </v>
    <v>      -2.43671494       4.22051408       0.00000000 </v>
    <v>       0.00000000       0.00000000       5.37418982 </v>
   </varray>
   <i name="volume">    110.53837516 </i>
   <varray name="rec_basis" >
    <v>       0.20519429       0.11846898      -0.00000000 </v>
    <v>       0.00000000       0.23693796       0.00000000 </v>
    <v>       0.00000000      -0.00000000       0.18607456 </v>
   </varray>
  </crystal>
  <varray name="positions" >
   <v>       0.46463011       0.00000000       0.66666667 </v>
   <v>       0.00000000       0.46463011       0.33333333 </v>
   <v>       0.53536989       0.53536989       0.00000000 </v>
   <v>       0.13564152       0.72392564       0.55411953 </v>
   <v>       0.27607436       0.41171588       0.22078619 </v>
   <v>       0.58828412       0.86435848       0.88745286 </v>
   <v>       0.41171588       0.27607436       0.77921381 </v>
   <v>       0.86435848       0.58828412       0.11254714 </v>
   <v>       0.72392564       0.13564152       0.44588047 </v>
  </varray>
 </structure>
</modeling>
