<?xml version="1.0" encoding="ISO-8859-1"?>
<modeling>
 <generator>
  <i name="program" type="string">vasp </i>
  <i name="version" type="string">6.4.1  </i>
  <i name="subversion" type="string">05Apr23 (build Sep  6 2023 20:49:31) complex                          parallel </i>
  <i name="platform" type="string">LinuxNV </i>
  <i name="date" type="string">2023 10 19 </i>
  <i name="time" type="string">14:05:35 </i>
 </generator>
 <incar>
  <i type="string" name="PREC">Accurate</i>
  <i type="string" name="ALGO">Fast</i>
  <i name="EDIFF">      0.00000001</i>
  <i name="ENCUT">    500.00000000</i>
  <i type="int" name="ISMEAR">     0</i>
  <i name="SIGMA">      0.10000000</i>
  <i type="logical" name="LEPSILON"> T  </i>
 </incar>
 <primitive_cell>
  <structure name="primitive_cell" >
   <crystal>
    <varray name="basis" >
     <v>       4.87342988       0.00000000       0.00000000 </v>
     <v>      -2.43671494       4.22051408       0.00000000 </v>
     <v>       0.00000000       0.00000000       5.37418982 </v>
    </varray>
    <i name="volume">    110.53837516 </i>
    <varray name="rec_basis" >
     <v>       0.20519429       0.11846898      -0.00000000 </v>
     <v>       0.00000000       0.23693796       0.00000000 </v>
     <v>       0.00000000      -0.00000000       0.18607456 </v>
    </varray>
   </crystal>
   <varray name="positions" >
    <v>       0.46456604       0.99976618       0.66672283 </v>
    <v>       0.00023382       0.46479986       0.33338950 </v>
    <v>       0.53520014       0.53543396       0.00005617 </v>
    <v>       0.13552937       0.72398721       0.55413947 </v>
    <v>       0.27601279       0.41154217       0.22080614 </v>
    <v>       0.58845783       0.86447063       0.88747281 </v>
    <v>       0.41146855       0.27602218       0.77909526 </v>
    <v>       0.86455363       0.58853145       0.11242859 </v>
    <v>       0.72397782       0.13544637       0.44576193 </v>
   </varray>
  </structure>
  <varray name="primitive_index" >
   <v type="int" >        1 </v>
   <v type="int" >        2 </v>
   <v type="int" >        3 </v>
   <v type="int" >        4 </v>
   <v type="int" >        5 </v>
   <v type="int" >        6 </v>
   <v type="int" >        7 </v>
   <v type="int" >        8 </v>
   <v type="int" >        9 </v>
  </varray>
 </primitive_cell>
 <kpoints>
  <generation param="Gamma">
   <v type="int" name="divisions">       4        4        4 </v>
   <v name="usershift">      0.00000000       0.00000000       0.00000000 </v>
   <v name="genvec1">      0.25000000       0.00000000       0.00000000 </v>
   <v name="genvec2">      0.00000000       0.25000000       0.00000000 </v>
   <v name="genvec3">      0.00000000       0.00000000       0.25000000 </v>
   <v name="shift">      0.00000000       0.00000000       0.00000000 </v>
  </generation>
  <varray name="kpointlist" >
   <v>       0.00000000       0.00000000       0.00000000 </v>
   <v>       0.25000000       0.00000000       0.00000000 </v>
   <v>       0.50000000       0.00000000       0.00000000 </v>
   <v>       0.25000000       0.25000000       0.00000000 </v>
   <v>       0.00000000       0.00000000       0.25000000 </v>
   <v>       0.25000000       0.00000000       0.25000000 </v>
   <v>       0.00000000       0.25000000       0.25000000 </v>
   <v>       0.50000000       0.00000000       0.25000000 </v>
   <v>       0.25000000       0.25000000       0.25000000 </v>
   <v>      -0.25000000       0.50000000       0.25000000 </v>
   <v>       0.00000000       0.00000000       0.50000000 </v>
   <v>       0.25000000       0.00000000       0.50000000 </v>
   <v>       0.50000000       0.00000000       0.50000000 </v>
   <v>       0.25000000       0.25000000       0.50000000 </v>
  </varray>
  <varray name="weights" >
   <v>       0.01562500 </v>
   <v>       0.09375000 </v>
   <v>       0.04687500 </v>
   <v>       0.09375000 </v>
   <v>       0.03125000 </v>
   <v>       0.09375000 </v>
   <v>       0.09375000 </v>
   <v>       0.09375000 </v>
   <v>       0.09375000 </v>
   <v>       0.09375000 </v>
   <v>       0.01562500 </v>
   <v>       0.09375000 </v>
   <v>       0.04687500 </v>
   <v>       0.09375000 </v>
  </varray>
 </kpoints>
 <parameters>
  <separator name="general" >
   <i type="string" name="SYSTEM">unknown system</i>
   <i type="logical" name="LCOMPAT"> F  </i>
  </separator>
  <separator name="electronic" >
   <i type="string" name="PREC">accura</i>
   <i name="ENMAX">    500.00000000</i>
   <i name="ENAUG">    605.39200000</i>
   <i name="EDIFF">      0.00000001</i>
   <i type="int" name="IALGO">    68</i>
   <i type="int" name="IWAVPR">    10</i>
   <i type="int" name="NBANDS">    29</i>
   <i type="int" name="NBANDSLOW">    -1</i>
   <i type="int" name="NBANDSHIGH">    -1</i>
   <i name="NELECT">     48.00000000</i>
   <i type="int" name="TURBO">     0</i>
   <i type="int" name="IRESTART">     0</i>
   <i type="int" name="NREBOOT">     0</i>
   <i type="int" name="NMIN">     0</i>
   <i name="EREF">      0.00000000</i>
   <separator name="electronic smearing" >
    <i type="int" name="ISMEAR">     0</i>
    <i name="SIGMA">      0.10000000</i>
    <i name="KSPACING">      0.50000000</i>
    <i type="logical" name="KGAMMA"> T  </i>
    <i type="logical" name="KBLOWUP"> T  </i>
   </separator>
   <separator name="electronic projectors" >
    <i type="logical" name="LREAL"> F  </i>
    <v name="ROPT">      0.00000000      0.00000000</v>
    <i type="int" name="LMAXPAW">  -100</i>
    <i type="int" name="LMAXMIX">     2</i>
    <i type="logical" name="NLSPLINE"> F  </i>
   </separator>
   <separator name="electronic startup" >
    <i type="int" name="ISTART">     0</i>
    <i type="int" name="ICHARG">     2</i>
    <i type="int" name="INIWAV">     1</i>
   </separator>
   <separator name="electronic spin" >
    <i type="int" name="ISPIN">     1</i>
    <i type="logical" name="LNONCOLLINEAR"> F  </i>
    <v name="MAGMOM">      1.00000000      1.00000000      1.00000000      1.00000000      1.00000000      1.00000000      1.00000000      1.00000000      1.00000000</v>
    <i name="NUPDOWN">     -1.00000000</i>
    <i type="logical" name="LSORBIT"> F  </i>
    <v name="SAXIS">      0.00000000      0.00000000      1.00000000</v>
    <i type="logical" name="LSPIRAL"> F  </i>
    <v name="QSPIRAL">      0.00000000      0.00000000      0.00000000</v>
    <i type="logical" name="LZEROZ"> F  </i>
   </separator>
   <separator name="electronic exchange-correlation" >
    <i type="logical" name="LASPH"> F  </i>
    <i type="logical" name="LMETAGGA"> F  </i>
   </separator>
   <separator name="electronic convergence" >
    <i type="int" name="NELM">    60</i>
    <i type="int" name="NELMDL">    -5</i>
    <i type="int" name="NELMIN">     2</i>
    <i name="ENINI">    500.00000000</i>
    <separator name="electronic convergence detail" >
     <i type="logical" name="LDIAG"> T  </i>
     <i type="logical" name="LSUBROT"> F  </i>
     <i name="WEIMIN">      0.00000000</i>
     <i name="EBREAK">      0.00000000</i>
     <i name="DEPER">      0.30000000</i>
     <i type="int" name="NRMM">     4</i>
     <i name="TIME">      0.40000000</i>
    </separator>
   </separator>
   <separator name="electronic mixer" >
    <i name="AMIX">      0.40000000</i>
    <i name="BMIX">      1.00000000</i>
    <i name="AMIN">      0.10000000</i>
    <i name="AMIX_MAG">      1.60000000</i>
    <i name="BMIX_MAG">      1.00000000</i>
    <separator name="electronic mixer details" >
     <i type="int" name="IMIX">     4</i>
     <i type="logical" name="MIXFIRST"> F  </i>
     <i type="int" name="MAXMIX">   -45</i>
     <i name="WC">    100.00000000</i>
     <i type="int" name="INIMIX">     1</i>
     <i type="int" name="MIXPRE">     1</i>
     <i type="int" name="MREMOVE">     5</i>
    </separator>
   </separator>
   <separator name="electronic dipolcorrection" >
    <i type="logical" name="LDIPOL"> F  </i>
    <i type="logical" name="LMONO"> F  </i>
    <i type="int" name="IDIPOL">     0</i>
    <i name="EPSILON">      1.00000000</i>
    <v name="DIPOL">   -100.00000000   -100.00000000   -100.00000000</v>
    <i name="EFIELD">      0.00000000</i>
   </separator>
  </separator>
  <separator name="grids" >
   <i type="int" name="NGX">    36</i>
   <i type="int" name="NGY">    36</i>
   <i type="int" name="NGZ">    40</i>
   <i type="int" name="NGXF">    72</i>
   <i type="int" name="NGYF">    72</i>
   <i type="int" name="NGZF">    80</i>
   <i type="logical" name="ADDGRID"> F  </i>
  </separator>
  <separator name="ionic" >
   <i type="int" name="NSW">     0</i>
   <i type="int" name="IBRION">    -1</i>
   <i type="int" name="MDALGO">     0</i>
   <i type="int" name="ISIF">     2</i>
   <i name="PSTRESS">      0.00000000</i>
   <i name="EDIFFG">      0.00000010</i>
   <i type="int" name="NFREE">     0</i>
   <i name="POTIM">      0.50000000</i>
   <i name="SMASS">     -3.00000000</i>
   <i name="SCALEE">      1.00000000</i>
  </separator>
  <separator name="ionic md" >
   <i name="TEBEG">      0.00010000</i>
   <i name="TEEND">      0.00010000</i>
   <i type="int" name="NBLOCK">     1</i>
   <i type="int" name="KBLOCK">     1</i>
   <i type="int" name="NPACO">   256</i>
   <i name="APACO">     10.00000000</i>
  </separator>
  <separator name="symmetry" >
   <i type="int" name="ISYM">     2</i>
   <i name="SYMPREC">      0.00001000</i>
  </separator>
  <separator name="dos" >
   <i type="int" name="LORBIT">     0</i>
   <v name="RWIGS">     -1.00000000     -1.00000000</v>
   <i type="int" name="NEDOS">   301</i>
   <i name="EMIN">     10.00000000</i>
   <i name="EMAX">    -10.00000000</i>
   <i name="EFERMI">      0.00000000</i>
  </separator>
  <separator name="writing" >
   <i type="int" name="NWRITE">     2</i>
   <i type="logical" name="LWAVE"> T  </i>
   <i type="logical" name="LDOWNSAMPLE"> F  </i>
   <i type="logical" name="LCHARG"> T  </i>
   <i type="logical" name="LPARD"> F  </i>
   <i type="logical" name="LVTOT"> F  </i>
   <i type="logical" name="LVHAR"> F  </i>
   <i type="logical" name="LELF"> F  </i>
   <i type="logical" name="LOPTICS"> F  </i>
   <v name="STM">      0.00000000      0.00000000      0.00000000      0.00000000      0.00000000      0.00000000      0.00000000</v>
  </separator>
  <separator name="performance" >
   <i type="int" name="NPAR">     1</i>
   <i type="int" name="NSIM">     4</i>
   <i type="int" name="NBLK">    -1</i>
   <i type="logical" name="LPLANE"> T  </i>
   <i type="logical" name="LSCALAPACK"> T  </i>
   <i type="logical" name="LSCAAWARE"> F  </i>
   <i type="logical" name="LSCALU"> F  </i>
   <i type="logical" name="LASYNC"> F  </i>
   <i type="logical" name="LORBITALREAL"> F  </i>
  </separator>
  <separator name="miscellaneous" >
   <i type="int" name="IDIOT">     3</i>
   <i type="int" name="PHON_NSTRUCT">    -1</i>
   <i type="logical" name="LMUSIC"> F  </i>
   <v name="POMASS">     28.08500000     16.00000000</v>
   <v name="DARWINR">      0.00000000      0.00000000</v>
   <v name="DARWINV">      1.00000000      1.00000000</v>
   <i type="logical" name="LCORR"> T  </i>
  </separator>
  <i type="logical" name="GGA_COMPAT"> T  </i>
  <i type="logical" name="LBERRY"> F  </i>
  <i type="int" name="ICORELEVEL">     0</i>
  <i type="logical" name="LDAU"> F  </i>
  <i type="int" name="I_CONSTRAINED_M">     0</i>
  <separator name="electronic exchange-correlation" >
   <i type="string" name="GGA">--</i>
   <i type="int" name="VOSKOWN">     0</i>
   <i type="logical" name="LHFCALC"> F  </i>
   <i type="string" name="PRECFOCK"></i>
   <i type="logical" name="LSYMGRAD"> F  </i>
   <i type="logical" name="LHFONE"> F  </i>
   <i type="logical" name="LRHFCALC"> F  </i>
   <i type="logical" name="LTHOMAS"> F  </i>
   <i type="logical" name="LMODELHF"> F  </i>
   <i type="logical" name="LFOCKACE"> F  </i>
   <i name="ENCUT4O">     -1.00000000</i>
   <i type="int" name="EXXOEP">     0</i>
   <i type="int" name="FOURORBIT">     0</i>
   <i name="AEXX">      0.00000000</i>
   <i name="HFALPHA">      0.00000000</i>
   <i name="MCALPHA">      0.00000000</i>
   <i name="ALDAX">      1.00000000</i>
   <i name="AGGAX">      1.00000000</i>
   <i name="ALDAC">      1.00000000</i>
   <i name="AGGAC">      1.00000000</i>
   <i type="int" name="NKREDX">     1</i>
   <i type="int" name="NKREDY">     1</i>
   <i type="int" name="NKREDZ">     1</i>
   <i type="logical" name="SHIFTRED"> F  </i>
   <i type="logical" name="ODDONLY"> F  </i>
   <i type="logical" name="EVENONLY"> F  </i>
   <i type="int" name="LMAXFOCK">     0</i>
   <i type="int" name="NMAXFOCKAE">     0</i>
   <i type="logical" name="LFOCKAEDFT"> F  </i>
   <i name="HFSCREEN">      0.00000000</i>
   <i name="HFSCREENC">      0.00000000</i>
   <i type="int" name="NBANDSGWLOW">     0</i>
  </separator>
  <separator name="vdW DFT" >
   <i type="logical" name="LUSE_VDW"> F  </i>
   <i type="int" name="IVDW_NL">     1</i>
   <i type="logical" name="LSPIN_VDW"> F  </i>
   <i name="Zab_VDW">     -0.84910000</i>
   <i name="PARAM1">      0.12340000</i>
   <i name="PARAM2">      1.00000000</i>
   <i name="PARAM3">      0.00000000</i>
  </separator>
  <separator name="model GW" >
   <i type="int" name="MODEL_GW">     0</i>
   <i name="MODEL_EPS0">      7.36922501</i>
   <i name="MODEL_ALPHA">      1.00000000</i>
  </separator>
  <separator name="linear response parameters" >
   <i type="logical" name="LEPSILON"> T  </i>
   <i type="logical" name="LRPA"> F  </i>
   <i type="logical" name="LNABLA"> F  </i>
   <i type="logical" name="LVEL"> F  </i>
   <i name="CSHIFT">      0.10000000</i>
   <i name="OMEGAMAX">     -1.00000000</i>
   <i name="DEG_THRESHOLD">      0.00200000</i>
   <i name="RTIME">     -0.10000000</i>
   <i name="WPLASMAI">      0.00000000</i>
   <v name="DFIELD">      0.00000000      0.00000000      0.00000000</v>
   <v name="WPLASMA">      0.00000000      0.00000000      0.00000000      0.00000000      0.00000000      0.00000000      0.00000000      0.00000000      0.00000000</v>
  </separator>
  <separator name="orbital magnetization" >
   <i type="logical" name="NUCIND"> F  </i>
   <v name="MAGPOS">      0.00000000      0.00000000      0.00000000</v>
   <i type="logical" name="LNICSALL"> T  </i>
   <i type="logical" name="ORBITALMAG"> F  </i>
   <i type="logical" name="LMAGBLOCH"> F  </i>
   <i type="logical" name="LCHIMAG"> F  </i>
   <i type="logical" name="LGAUGE"> T  </i>
   <i type="int" name="MAGATOM">     0</i>
   <v name="MAGDIPOL">      0.00000000      0.00000000      0.00000000</v>
   <v name="AVECCONST">      0.00000000      0.00000000      0.00000000</v>
  </separator>
  <separator name="response functions" >
   <i type="logical" name="LALL_IN_ONE"> F  </i>
   <i type="int" name="IALL_IN_ONE">    -1</i>
   <i type="int" name="NBANDS_WAVE">    -1</i>
   <i type="logical" name="LFINITE_TEMPERATURE"> F  </i>
   <i type="logical" name="LADDER"> F  </i>
   <i type="logical" name="LRPAFORCE"> F  </i>
   <i type="logical" name="LFXC"> F  </i>
   <i type="logical" name="LHARTREE"> T  </i>
   <i type="int" name="IBSE">     0</i>
   <v type="int" name="KPOINT">    -1     0     0     0</v>
   <i type="logical" name="LTCTC"> F  </i>
   <i type="logical" name="LTCTE"> F  </i>
   <i type="logical" name="LTETE"> F  </i>
   <i type="logical" name="LTRIPLET"> F  </i>
   <i type="logical" name="LFXCEPS"> F  </i>
   <i type="logical" name="LFXHEG"> F  </i>
   <i type="int" name="NATURALO">     2</i>
   <i type="logical" name="LHOLEGF"> F  </i>
   <i type="logical" name="L2ORDER"> F  </i>
   <i type="logical" name="LDMP1"> F  </i>
   <i type="logical" name="LMP2LT"> F  </i>
   <i type="logical" name="LSMP2LT"> F  </i>
   <i type="logical" name="LGWLF"> F  </i>
   <i name="ENCUTGW">     -1.60000002</i>
   <i name="ENCUTGWSOFT">     -1.60000002</i>
   <i name="ENCUTLF">     -1.00000000</i>
   <i type="logical" name="LESF_SPLINES"> F  </i>
   <i type="int" name="LMAXMP2">    -1</i>
   <i name="SCISSOR">      0.00000000</i>
   <i type="int" name="NOMEGA">     0</i>
   <i type="int" name="NOMEGAR">     0</i>
   <i type="int" name="NBANDSGW">    -1</i>
   <i type="int" name="NBANDSO">    -1</i>
   <i type="int" name="NBANDSV">    -1</i>
   <i type="int" name="NELMGW">     1</i>
   <i type="int" name="NELMHF">     1</i>
   <i type="int" name="DIM">     3</i>
   <i type="int" name="IESPILON">     4</i>
   <i type="int" name="ANTIRES">     0</i>
   <i name="OMEGAMAX">    -30.00000000</i>
   <i name="OMEGAMIN">    -30.00000000</i>
   <i name="OMEGATL">   -200.00000000</i>
   <i type="int" name="OMEGAGRID">     0</i>
   <i name="CSHIFT">     -0.10000000</i>
   <i type="logical" name="LSELFENERGY"> F  </i>
   <i type="logical" name="LSPECTRAL"> F  </i>
   <i type="logical" name="LSPECTRALGW"> F  </i>
   <i type="logical" name="LSINGLES"> F  </i>
   <i type="logical" name="LFERMIGW"> F  </i>
   <i type="logical" name="ODDONLYGW"> F  </i>
   <i type="logical" name="EVENONLYGW"> F  </i>
   <i type="int" name="NKREDLFX">     1</i>
   <i type="int" name="NKREDLFY">     1</i>
   <i type="int" name="NKREDLFZ">     1</i>
   <i type="int" name="MAXMEM">  2800</i>
   <i type="int" name="TELESCOPE">     0</i>
   <i type="int" name="NTAUPAR">    -1</i>
   <i type="int" name="NOMEGAPAR">    -1</i>
   <i name="DAMP_NEWTON">      0.80000001</i>
   <i name="LAMBDA">      1.00000000</i>
  </separator>
  <separator name="External order field" >
   <i name="OFIELD_KAPPA">      0.00000000</i>
   <v name="OFIELD_K">      0.00000000      0.00000000      0.00000000</v>
   <i name="OFIELD_Q6_NEAR">      0.00000000</i>
   <i name="OFIELD_Q6_FAR">      0.00000000</i>
   <i name="OFIELD_A">      0.00000000</i>
  </separator>
  <separator name="optional k-points parameters" >
   <i type="int" name="KPOINTS_OPT_MODE">     1</i>
   <i type="logical" name="LKPOINTS_OPT"> F  </i>
  </separator>
 </parameters>
 <atominfo>
  <atoms>       9 </atoms>
  <types>       2 </types>
  <array name="atoms" >
   <dimension dim="1">ion</dimension>
   <field type="string">element</field>
   <field type="int">atomtype</field>
   <set>
    <rc><c>Si</c><c>   1</c></rc>
    <rc><c>Si</c><c>   1</c></rc>
    <rc><c>Si</c><c>   1</c></rc>
    <rc><c>O </c><c>   2</c></rc>
    <rc><c>O </c><c>   2</c></rc>
    <rc><c>O </c><c>   2</c></rc>
    <rc><c>O </c><c>   2</c></rc>
    <rc><c>O </c><c>   2</c></rc>
    <rc><c>O </c><c>   2</c></rc>
   </set>
  </array>
  <array name="atomtypes" >
   <dimension dim="1">type</dimension>
   <field type="int">atomspertype</field>
   <field type="string">element</field>
   <field>mass</field>
   <field>valence</field>
   <field type="string">pseudopotential</field>
   <set>
    <rc><c>   3</c><c>Si</c><c>     28.08500000</c><c>      4.00000000</c><c>  PAW_PBE Si 05Jan2001                  </c></rc>
    <rc><c>   6</c><c>O </c><c>     16.00000000</c><c>      6.00000000</c><c>  PAW_PBE O 08Apr2002                   </c></rc>
   </set>
  </array>
 </atominfo>
 <structure name="initialpos" >
  <crystal>
   <varray name="basis" >
    <v>       4.87342988       0.00000000       0.00000000 </v>
    <v>      -2.43671494       4.22051408       0.00000000 </v>
    <v>       0.00000000       0.00000000       5.37418982 </v>
   </varray>
   <i name="volume">    110.53837516 </i>
   <varray name="rec_basis" >
    <v>       0.20519429       0.11846898      -0.00000000 </v>
    <v>       0.00000000       0.23693796       0.00000000 </v>
    <v>       0.00000000      -0.00000000       0.18607456 </v>
   </varray>
  </crystal>
  <varray name="positions" >
   <v>       0.46456604       0.99976618       0.66672283 </v>
   <v>       0.00023382       0.46479986       0.33338950 </v>
   <v>       0.53520014       0.53543396       0.00005617 </v>
   <v>       0.13552937       0.72398721       0.55413947 </v>
   <v>       0.27601279       0.41154217       0.22080614 </v>
   <v>       0.58845783       0.86447063       0.88747281 </v>
   <v>       0.41146855       0.27602218       0.77909526 </v>
   <v>       0.86455363       0.58853145       0.11242859 </v>
   <v>       0.72397782       0.13544637       0.44576193 </v>
  </varray>
 </structure>
 <calculation>
  <scstep>
   <time name="dav">    0.51    0.50</time>
   <time name="total">    0.54    0.52</time>
   <energy>
    <i name="alphaZ">     71.30271804 </i>
    <i name="ewald">  -1930.19378388 </i>
    <i name="hartreedc">   -909.39713628 </i>
    <i name="XCdc">    141.70969773 </i>
    <i name="pawpsdc">   2343.66826019 </i>
    <i name="pawaedc">  -2301.68043871 </i>
    <i name="eentropy">     -0.00965366 </i>
    <i name="bandstr">    -15.81341890 </i>
    <i name="atom">   2903.33737771 </i>
    <i name="e_fr_energy">    302.92362224 </i>
    <i name="e_wo_entrp">    302.93327590 </i>
    <i name="e_0_energy">    302.92844907 </i>
   </energy>
  </scstep>
  <scstep>
   <time name="dav">    0.49    0.49</time>
   <time name="total">    0.49    0.49</time>
   <energy>
    <i name="e_fr_energy">    -60.94751276 </i>
    <i name="e_wo_entrp">    -60.94751276 </i>
    <i name="e_0_energy">    -60.94751276 </i>
   </energy>
  </scstep>
  <scstep>
   <time name="dav">    0.45    0.45</time>
   <time name="total">    0.45    0.45</time>
   <energy>
    <i name="e_fr_energy">    -80.16815456 </i>
    <i name="e_wo_entrp">    -80.16815456 </i>
    <i name="e_0_energy">    -80.16815456 </i>
   </energy>
  </scstep>
  <scstep>
   <time name="dav">    0.45    0.45</time>
   <time name="total">    0.45    0.45</time>
   <energy>
    <i name="e_fr_energy">    -80.41809487 </i>
    <i name="e_wo_entrp">    -80.41809487 </i>
    <i name="e_0_energy">    -80.41809487 </i>
   </energy>
  </scstep>
  <scstep>
   <time name="dav">    0.44    0.45</time>
   <time name="total">    0.53    0.51</time>
   <energy>
    <i name="e_fr_energy">    -80.42322607 </i>
    <i name="e_wo_entrp">    -80.42322607 </i>
    <i name="e_0_energy">    -80.42322607 </i>
   </energy>
  </scstep>
  <scstep>
   <time name="diag">    0.05    0.05</time>
   <time name="diis">    0.50    0.50</time>
   <time name="orth">    0.00    0.00</time>
   <time name="total">    0.67    0.62</time>
   <energy>
    <i name="e_fr_energy">    -70.67406778 </i>
    <i name="e_wo_entrp">    -70.67406778 </i>
    <i name="e_0_energy">    -70.67406778 </i>
   </energy>
  </scstep>
  <scstep>
   <time name="diag">    0.05    0.05</time>
   <time name="diis">    0.55    0.55</time>
   <time name="orth">    0.00    0.00</time>
   <time name="total">    0.72    0.67</time>
   <energy>
    <i name="e_fr_energy">    -70.97658061 </i>
    <i name="e_wo_entrp">    -70.97658061 </i>
    <i name="e_0_energy">    -70.97658061 </i>
   </energy>
  </scstep>
  <scstep>
   <time name="diag">    0.05    0.05</time>
   <time name="diis">    0.55    0.55</time>
   <time name="orth">    0.00    0.00</time>
   <time name="total">    0.72    0.67</time>
   <energy>
    <i name="e_fr_energy">    -70.96834708 </i>
    <i name="e_wo_entrp">    -70.96834708 </i>
    <i name="e_0_energy">    -70.96834708 </i>
   </energy>
  </scstep>
  <scstep>
   <time name="diag">    0.05    0.05</time>
   <time name="diis">    0.56    0.56</time>
   <time name="orth">    0.00    0.00</time>
   <time name="total">    0.73    0.68</time>
   <energy>
    <i name="e_fr_energy">    -70.98739301 </i>
    <i name="e_wo_entrp">    -70.98739301 </i>
    <i name="e_0_energy">    -70.98739301 </i>
   </energy>
  </scstep>
  <scstep>
   <time name="diag">    0.05    0.05</time>
   <time name="diis">    0.56    0.56</time>
   <time name="orth">    0.00    0.00</time>
   <time name="total">    0.73    0.68</time>
   <energy>
    <i name="e_fr_energy">    -70.99269386 </i>
    <i name="e_wo_entrp">    -70.99269386 </i>
    <i name="e_0_energy">    -70.99269386 </i>
   </energy>
  </scstep>
  <scstep>
   <time name="diag">    0.05    0.05</time>
   <time name="diis">    0.56    0.56</time>
   <time name="orth">    0.00    0.00</time>
   <time name="total">    0.73    0.68</time>
   <energy>
    <i name="e_fr_energy">    -70.98880363 </i>
    <i name="e_wo_entrp">    -70.98880363 </i>
    <i name="e_0_energy">    -70.98880363 </i>
   </energy>
  </scstep>
  <scstep>
   <time name="diag">    0.05    0.05</time>
   <time name="diis">    0.56    0.56</time>
   <time name="orth">    0.00    0.00</time>
   <time name="total">    0.73    0.68</time>
   <energy>
    <i name="e_fr_energy">    -70.98940477 </i>
    <i name="e_wo_entrp">    -70.98940477 </i>
    <i name="e_0_energy">    -70.98940477 </i>
   </energy>
  </scstep>
  <scstep>
   <time name="diag">    0.05    0.05</time>
   <time name="diis">    0.59    0.60</time>
   <time name="orth">    0.00    0.00</time>
   <time name="total">    0.76    0.72</time>
   <energy>
    <i name="e_fr_energy">    -70.98916445 </i>
    <i name="e_wo_entrp">    -70.98916445 </i>
    <i name="e_0_energy">    -70.98916445 </i>
   </energy>
  </scstep>
  <scstep>
   <time name="diag">    0.05    0.05</time>
   <time name="diis">    0.57    0.57</time>
   <time name="orth">    0.00    0.00</time>
   <time name="total">    0.74    0.69</time>
   <energy>
    <i name="e_fr_energy">    -70.98912359 </i>
    <i name="e_wo_entrp">    -70.98912359 </i>
    <i name="e_0_energy">    -70.98912359 </i>
   </energy>
  </scstep>
  <scstep>
   <time name="diag">    0.05    0.05</time>
   <time name="diis">    0.62    0.62</time>
   <time name="orth">    0.00    0.00</time>
   <time name="total">    0.79    0.74</time>
   <energy>
    <i name="e_fr_energy">    -70.98912081 </i>
    <i name="e_wo_entrp">    -70.98912081 </i>
    <i name="e_0_energy">    -70.98912081 </i>
   </energy>
  </scstep>
  <scstep>
   <time name="diag">    0.05    0.05</time>
   <time name="diis">    0.56    0.57</time>
   <time name="orth">    0.00    0.00</time>
   <time name="total">    0.74    0.69</time>
   <energy>
    <i name="e_fr_energy">    -70.98911949 </i>
    <i name="e_wo_entrp">    -70.98911949 </i>
    <i name="e_0_energy">    -70.98911949 </i>
   </energy>
  </scstep>
  <scstep>
   <time name="diag">    0.05    0.05</time>
   <time name="diis">    0.56    0.57</time>
   <time name="orth">    0.00    0.00</time>
   <time name="total">    0.74    0.69</time>
   <energy>
    <i name="e_fr_energy">    -70.98911971 </i>
    <i name="e_wo_entrp">    -70.98911971 </i>
    <i name="e_0_energy">    -70.98911971 </i>
   </energy>
  </scstep>
  <scstep>
   <time name="diag">    0.05    0.05</time>
   <time name="diis">    0.61    0.61</time>
   <time name="orth">    0.00    0.00</time>
   <time name="total">    0.78    0.73</time>
   <energy>
    <i name="e_fr_energy">    -70.98911991 </i>
    <i name="e_wo_entrp">    -70.98911991 </i>
    <i name="e_0_energy">    -70.98911991 </i>
   </energy>
  </scstep>
  <scstep>
   <time name="diag">    0.05    0.05</time>
   <time name="diis">    0.56    0.57</time>
   <time name="orth">    0.00    0.00</time>
   <time name="total">    0.74    0.69</time>
   <energy>
    <i name="e_fr_energy">    -70.98911987 </i>
    <i name="e_wo_entrp">    -70.98911987 </i>
    <i name="e_0_energy">    -70.98911987 </i>
   </energy>
  </scstep>
  <scstep>
   <time name="diag">    0.05    0.05</time>
   <time name="diis">    0.57    0.57</time>
   <time name="orth">    0.00    0.00</time>
   <time name="total">    0.74    0.69</time>
   <energy>
    <i name="e_fr_energy">    -70.98911991 </i>
    <i name="e_wo_entrp">    -70.98911991 </i>
    <i name="e_0_energy">    -70.98911991 </i>
   </energy>
  </scstep>
  <scstep>
   <time name="diag">    0.05    0.05</time>
   <time name="diis">    0.38    0.38</time>
   <time name="orth">    0.00    0.00</time>
   <time name="total">    0.56    0.50</time>
   <energy>
    <i name="e_fr_energy">    -70.98911988 </i>
    <i name="e_wo_entrp">    -70.98911988 </i>
    <i name="e_0_energy">    -70.98911988 </i>
   </energy>
  </scstep>
  <scstep>
   <time name="diag">    0.05    0.05</time>
   <time name="diis">    0.38    0.38</time>
   <time name="orth">    0.00    0.00</time>
   <time name="total">    0.46    0.43</time>
   <energy>
    <i name="alphaZ">     71.30271804 </i>
    <i name="ewald">  -1930.19378388 </i>
    <i name="hartreedc">  -1040.55659957 </i>
    <i name="XCdc">    150.68542947 </i>
    <i name="pawpsdc">   8045.47258073 </i>
    <i name="pawaedc">  -8005.85037962 </i>
    <i name="eentropy">     -0.00000000 </i>
    <i name="bandstr">   -265.18646275 </i>
    <i name="atom">   2903.33737771 </i>
    <i name="e_fr_energy">    -70.98911988 </i>
    <i name="e_wo_entrp">    -70.98911988 </i>
    <i name="e_0_energy">    -70.98911988 </i>
   </energy>
  </scstep>
  <structure>
   <crystal>
    <varray name="basis" >
     <v>       4.87342988       0.00000000       0.00000000 </v>
     <v>      -2.43671494       4.22051408       0.00000000 </v>
     <v>       0.00000000       0.00000000       5.37418982 </v>
    </varray>
    <i name="volume">    110.53837516 </i>
    <varray name="rec_basis" >
     <v>       0.20519429       0.11846898      -0.00000000 </v>
     <v>       0.00000000       0.23693796       0.00000000 </v>
     <v>       0.00000000      -0.00000000       0.18607456 </v>
    </varray>
   </crystal>
   <varray name="positions" >
    <v>       0.46456604       0.99976618       0.66672283 </v>
    <v>       0.00023382       0.46479986       0.33338950 </v>
    <v>       0.53520014       0.53543396       0.00005617 </v>
    <v>       0.13552937       0.72398721       0.55413947 </v>
    <v>       0.27601279       0.41154217       0.22080614 </v>
    <v>       0.58845783       0.86447063       0.88747281 </v>
    <v>       0.41146855       0.27602218       0.77909526 </v>
    <v>       0.86455363       0.58853145       0.11242859 </v>
    <v>       0.72397782       0.13544637       0.44576193 </v>
   </varray>
  </structure>
  <varray name="forces" >
   <v>       0.01810711       0.06155648      -0.01883037 </v>
   <v>      -0.06236303      -0.01509702      -0.01883037 </v>
   <v>       0.04425592      -0.04645946      -0.01883037 </v>
   <v>      -0.28202866      -0.00178575       0.16281773 </v>
   <v>       0.14256083      -0.24335111       0.16281773 </v>
   <v>       0.13946783       0.24513686       0.16281773 </v>
   <v>      -0.26845832       0.00038019      -0.14398736 </v>
   <v>       0.13455842       0.23230163      -0.14398736 </v>
   <v>       0.13389991      -0.23268182      -0.14398736 </v>
  </varray>
  <varray name="stress" >
   <v>      71.97567122       0.00000096       0.00000000 </v>
   <v>      -0.00000096      71.97567122       0.00000000 </v>
   <v>       0.00000000       0.00000000      73.62968697 </v>
  </varray>
  <energy>
   <i name="e_fr_energy">    -70.98911988 </i>
   <i name="e_wo_entrp">    -70.98911988 </i>
   <i name="e_0_energy">    -70.98911988 </i>
  </energy>
  <scstep>
   <time name="total">    7.02    1.50</time>
   <energy>
    <i name="e_fr_energy">   -182.67158766 </i>
    <i name="e_wo_entrp">   -182.67158766 </i>
    <i name="e_0_energy">   -182.67158766 </i>
   </energy>
  </scstep>
  <scstep>
   <time name="total">    6.84    1.32</time>
   <energy>
    <i name="e_fr_energy">   -172.55273156 </i>
    <i name="e_wo_entrp">   -172.55273156 </i>
    <i name="e_0_energy">   -172.55273156 </i>
   </energy>
  </scstep>
  <scstep>
   <time name="total">    6.83    1.32</time>
   <energy>
    <i name="e_fr_energy">   -172.69858969 </i>
    <i name="e_wo_entrp">   -172.69858969 </i>
    <i name="e_0_energy">   -172.69858969 </i>
   </energy>
  </scstep>
  <scstep>
   <time name="total">    0.54    0.54</time>
   <energy>
    <i name="e_fr_energy">   -172.70601507 </i>
    <i name="e_wo_entrp">   -172.70601507 </i>
    <i name="e_0_energy">   -172.70601507 </i>
   </energy>
  </scstep>
  <scstep>
   <time name="total">    0.54    0.54</time>
   <energy>
    <i name="e_fr_energy">   -172.70618490 </i>
    <i name="e_wo_entrp">   -172.70618490 </i>
    <i name="e_0_energy">   -172.70618490 </i>
   </energy>
  </scstep>
  <scstep>
   <time name="total">    0.54    0.54</time>
   <energy>
    <i name="e_fr_energy">   -172.70619367 </i>
    <i name="e_wo_entrp">   -172.70619367 </i>
    <i name="e_0_energy">   -172.70619367 </i>
   </energy>
  </scstep>
  <scstep>
   <time name="total">    0.55    0.55</time>
   <energy>
    <i name="e_fr_energy">   -172.70619401 </i>
    <i name="e_wo_entrp">   -172.70619401 </i>
    <i name="e_0_energy">   -172.70619401 </i>
   </energy>
  </scstep>
  <scstep>
   <time name="total">    0.55    0.55</time>
   <energy>
    <i name="e_fr_energy">   -172.70619400 </i>
    <i name="e_wo_entrp">   -172.70619400 </i>
    <i name="e_0_energy">   -172.70619400 </i>
   </energy>
  </scstep>
  <scstep>
   <time name="total">    0.55    0.55</time>
   <energy>
    <i name="e_fr_energy">   -172.70619437 </i>
    <i name="e_wo_entrp">   -172.70619437 </i>
    <i name="e_0_energy">   -172.70619437 </i>
   </energy>
  </scstep>
  <scstep>
   <time name="total">    0.55    0.55</time>
   <energy>
    <i name="e_fr_energy">   -172.70619463 </i>
    <i name="e_wo_entrp">   -172.70619463 </i>
    <i name="e_0_energy">   -172.70619463 </i>
   </energy>
  </scstep>
  <scstep>
   <time name="total">    6.99    1.49</time>
   <energy>
    <i name="e_fr_energy">   -182.13582835 </i>
    <i name="e_wo_entrp">   -182.13582835 </i>
    <i name="e_0_energy">   -182.13582835 </i>
   </energy>
  </scstep>
  <scstep>
   <time name="total">    6.83    1.31</time>
   <energy>
    <i name="e_fr_energy">   -172.66814252 </i>
    <i name="e_wo_entrp">   -172.66814252 </i>
    <i name="e_0_energy">   -172.66814252 </i>
   </energy>
  </scstep>
  <scstep>
   <time name="total">    6.97    1.34</time>
   <energy>
    <i name="e_fr_energy">   -172.81100855 </i>
    <i name="e_wo_entrp">   -172.81100855 </i>
    <i name="e_0_energy">   -172.81100855 </i>
   </energy>
  </scstep>
  <scstep>
   <time name="total">    0.54    0.55</time>
   <energy>
    <i name="e_fr_energy">   -172.81828136 </i>
    <i name="e_wo_entrp">   -172.81828136 </i>
    <i name="e_0_energy">   -172.81828136 </i>
   </energy>
  </scstep>
  <scstep>
   <time name="total">    0.54    0.54</time>
   <energy>
    <i name="e_fr_energy">   -172.81846695 </i>
    <i name="e_wo_entrp">   -172.81846695 </i>
    <i name="e_0_energy">   -172.81846695 </i>
   </energy>
  </scstep>
  <scstep>
   <time name="total">    0.54    0.55</time>
   <energy>
    <i name="e_fr_energy">   -172.81848210 </i>
    <i name="e_wo_entrp">   -172.81848210 </i>
    <i name="e_0_energy">   -172.81848210 </i>
   </energy>
  </scstep>
  <scstep>
   <time name="total">    0.55    0.55</time>
   <energy>
    <i name="e_fr_energy">   -172.81848303 </i>
    <i name="e_wo_entrp">   -172.81848303 </i>
    <i name="e_0_energy">   -172.81848303 </i>
   </energy>
  </scstep>
  <scstep>
   <time name="total">    0.56    0.56</time>
   <energy>
    <i name="e_fr_energy">   -172.81848277 </i>
    <i name="e_wo_entrp">   -172.81848277 </i>
    <i name="e_0_energy">   -172.81848277 </i>
   </energy>
  </scstep>
  <scstep>
   <time name="total">    0.56    0.56</time>
   <energy>
    <i name="e_fr_energy">   -172.81848148 </i>
    <i name="e_wo_entrp">   -172.81848148 </i>
    <i name="e_0_energy">   -172.81848148 </i>
   </energy>
  </scstep>
  <scstep>
   <time name="total">    0.55    0.56</time>
   <energy>
    <i name="e_fr_energy">   -172.81848098 </i>
    <i name="e_wo_entrp">   -172.81848098 </i>
    <i name="e_0_energy">   -172.81848098 </i>
   </energy>
  </scstep>
  <scstep>
   <time name="total">    7.10    1.52</time>
   <energy>
    <i name="e_fr_energy">   -182.14373146 </i>
    <i name="e_wo_entrp">   -182.14373146 </i>
    <i name="e_0_energy">   -182.14373146 </i>
   </energy>
  </scstep>
  <scstep>
   <time name="total">    6.85    1.31</time>
   <energy>
    <i name="e_fr_energy">   -172.55600704 </i>
    <i name="e_wo_entrp">   -172.55600704 </i>
    <i name="e_0_energy">   -172.55600704 </i>
   </energy>
  </scstep>
  <scstep>
   <time name="total">    6.82    1.32</time>
   <energy>
    <i name="e_fr_energy">   -172.70909591 </i>
    <i name="e_wo_entrp">   -172.70909591 </i>
    <i name="e_0_energy">   -172.70909591 </i>
   </energy>
  </scstep>
  <scstep>
   <time name="total">    0.53    0.53</time>
   <energy>
    <i name="e_fr_energy">   -172.71656812 </i>
    <i name="e_wo_entrp">   -172.71656812 </i>
    <i name="e_0_energy">   -172.71656812 </i>
   </energy>
  </scstep>
  <scstep>
   <time name="total">    0.53    0.53</time>
   <energy>
    <i name="e_fr_energy">   -172.71672538 </i>
    <i name="e_wo_entrp">   -172.71672538 </i>
    <i name="e_0_energy">   -172.71672538 </i>
   </energy>
  </scstep>
  <scstep>
   <time name="total">    0.53    0.54</time>
   <energy>
    <i name="e_fr_energy">   -172.71673264 </i>
    <i name="e_wo_entrp">   -172.71673264 </i>
    <i name="e_0_energy">   -172.71673264 </i>
   </energy>
  </scstep>
  <scstep>
   <time name="total">    0.54    0.54</time>
   <energy>
    <i name="e_fr_energy">   -172.71673200 </i>
    <i name="e_wo_entrp">   -172.71673200 </i>
    <i name="e_0_energy">   -172.71673200 </i>
   </energy>
  </scstep>
  <scstep>
   <time name="total">    0.53    0.53</time>
   <energy>
    <i name="e_fr_energy">   -172.71673782 </i>
    <i name="e_wo_entrp">   -172.71673782 </i>
    <i name="e_0_energy">   -172.71673782 </i>
   </energy>
  </scstep>
  <scstep>
   <time name="total">    0.53    0.53</time>
   <energy>
    <i name="e_fr_energy">   -172.71674071 </i>
    <i name="e_wo_entrp">   -172.71674071 </i>
    <i name="e_0_energy">   -172.71674071 </i>
   </energy>
  </scstep>
  <scstep>
   <time name="total">    0.53    0.53</time>
   <energy>
    <i name="e_fr_energy">   -172.71674465 </i>
    <i name="e_wo_entrp">   -172.71674465 </i>
    <i name="e_0_energy">   -172.71674465 </i>
   </energy>
  </scstep>
  <scstep>
   <time name="total">    1.24    0.77</time>
   <energy>
    <i name="e_fr_energy">     -0.48219487 </i>
    <i name="e_wo_entrp">     -0.48219487 </i>
    <i name="e_0_energy">     -0.48219487 </i>
   </energy>
  </scstep>
  <scstep>
   <time name="total">    1.30    0.78</time>
   <energy>
    <i name="e_fr_energy">     -0.48461388 </i>
    <i name="e_wo_entrp">     -0.48461388 </i>
    <i name="e_0_energy">     -0.48461388 </i>
   </energy>
  </scstep>
  <scstep>
   <time name="total">    1.29    0.79</time>
   <energy>
    <i name="e_fr_energy">     -0.48479626 </i>
    <i name="e_wo_entrp">     -0.48479626 </i>
    <i name="e_0_energy">     -0.48479626 </i>
   </energy>
  </scstep>
  <scstep>
   <time name="total">    1.29    0.79</time>
   <energy>
    <i name="e_fr_energy">     -0.48480489 </i>
    <i name="e_wo_entrp">     -0.48480489 </i>
    <i name="e_0_energy">     -0.48480489 </i>
   </energy>
  </scstep>
  <scstep>
   <time name="total">    1.24    0.78</time>
   <energy>
    <i name="e_fr_energy">     -0.48480519 </i>
    <i name="e_wo_entrp">     -0.48480519 </i>
    <i name="e_0_energy">     -0.48480519 </i>
   </energy>
  </scstep>
  <scstep>
   <time name="total">    1.22    0.75</time>
   <energy>
    <i name="e_fr_energy">     -0.48480521 </i>
    <i name="e_wo_entrp">     -0.48480521 </i>
    <i name="e_0_energy">     -0.48480521 </i>
   </energy>
  </scstep>
  <scstep>
   <time name="total">    1.22    0.72</time>
   <energy>
    <i name="e_fr_energy">     -0.48480521 </i>
    <i name="e_wo_entrp">     -0.48480521 </i>
    <i name="e_0_energy">     -0.48480521 </i>
   </energy>
  </scstep>
  <scstep>
   <time name="total">    1.18    0.70</time>
   <energy>
    <i name="e_fr_energy">     -0.48480521 </i>
    <i name="e_wo_entrp">     -0.48480521 </i>
    <i name="e_0_energy">     -0.48480521 </i>
   </energy>
  </scstep>
  <scstep>
   <time name="total">    1.18    0.70</time>
   <energy>
    <i name="e_fr_energy">     -0.48480521 </i>
    <i name="e_wo_entrp">     -0.48480521 </i>
    <i name="e_0_energy">     -0.48480521 </i>
   </energy>
  </scstep>
  <scstep>
   <time name="total">    1.17    0.69</time>
   <energy>
    <i name="e_fr_energy">     -0.48480521 </i>
    <i name="e_wo_entrp">     -0.48480521 </i>
    <i name="e_0_energy">     -0.48480521 </i>
   </energy>
  </scstep>
  <scstep>
   <time name="total">    1.25    0.77</time>
   <energy>
    <i name="e_fr_energy">     -0.48392552 </i>
    <i name="e_wo_entrp">     -0.48392552 </i>
    <i name="e_0_energy">     -0.48392552 </i>
   </energy>
  </scstep>
  <scstep>
   <time name="total">    1.24    0.77</time>
   <energy>
    <i name="e_fr_energy">     -0.48613012 </i>
    <i name="e_wo_entrp">     -0.48613012 </i>
    <i name="e_0_energy">     -0.48613012 </i>
   </energy>
  </scstep>
  <scstep>
   <time name="total">    1.24    0.77</time>
   <energy>
    <i name="e_fr_energy">     -0.48632258 </i>
    <i name="e_wo_entrp">     -0.48632258 </i>
    <i name="e_0_energy">     -0.48632258 </i>
   </energy>
  </scstep>
  <scstep>
   <time name="total">    1.25    0.78</time>
   <energy>
    <i name="e_fr_energy">     -0.48633133 </i>
    <i name="e_wo_entrp">     -0.48633133 </i>
    <i name="e_0_energy">     -0.48633133 </i>
   </energy>
  </scstep>
  <scstep>
   <time name="total">    1.36    0.79</time>
   <energy>
    <i name="e_fr_energy">     -0.48633164 </i>
    <i name="e_wo_entrp">     -0.48633164 </i>
    <i name="e_0_energy">     -0.48633164 </i>
   </energy>
  </scstep>
  <scstep>
   <time name="total">    1.21    0.74</time>
   <energy>
    <i name="e_fr_energy">     -0.48633166 </i>
    <i name="e_wo_entrp">     -0.48633166 </i>
    <i name="e_0_energy">     -0.48633166 </i>
   </energy>
  </scstep>
  <scstep>
   <time name="total">    1.17    0.70</time>
   <energy>
    <i name="e_fr_energy">     -0.48633166 </i>
    <i name="e_wo_entrp">     -0.48633166 </i>
    <i name="e_0_energy">     -0.48633166 </i>
   </energy>
  </scstep>
  <scstep>
   <time name="total">    1.16    0.69</time>
   <energy>
    <i name="e_fr_energy">     -0.48633166 </i>
    <i name="e_wo_entrp">     -0.48633166 </i>
    <i name="e_0_energy">     -0.48633166 </i>
   </energy>
  </scstep>
  <scstep>
   <time name="total">    1.14    0.67</time>
   <energy>
    <i name="e_fr_energy">     -0.48633166 </i>
    <i name="e_wo_entrp">     -0.48633166 </i>
    <i name="e_0_energy">     -0.48633166 </i>
   </energy>
  </scstep>
  <scstep>
   <time name="total">    1.14    0.67</time>
   <energy>
    <i name="e_fr_energy">     -0.48633166 </i>
    <i name="e_wo_entrp">     -0.48633166 </i>
    <i name="e_0_energy">     -0.48633166 </i>
   </energy>
  </scstep>
  <scstep>
   <time name="total">    1.24    0.77</time>
   <energy>
    <i name="e_fr_energy">     -0.48760549 </i>
    <i name="e_wo_entrp">     -0.48760549 </i>
    <i name="e_0_energy">     -0.48760549 </i>
   </energy>
  </scstep>
  <scstep>
   <time name="total">    1.24    0.77</time>
   <energy>
    <i name="e_fr_energy">     -0.48965550 </i>
    <i name="e_wo_entrp">     -0.48965550 </i>
    <i name="e_0_energy">     -0.48965550 </i>
   </energy>
  </scstep>
  <scstep>
   <time name="total">    1.24    0.77</time>
   <energy>
    <i name="e_fr_energy">     -0.48984650 </i>
    <i name="e_wo_entrp">     -0.48984650 </i>
    <i name="e_0_energy">     -0.48984650 </i>
   </energy>
  </scstep>
  <scstep>
   <time name="total">    1.24    0.77</time>
   <energy>
    <i name="e_fr_energy">     -0.48985543 </i>
    <i name="e_wo_entrp">     -0.48985543 </i>
    <i name="e_0_energy">     -0.48985543 </i>
   </energy>
  </scstep>
  <scstep>
   <time name="total">    1.25    0.78</time>
   <energy>
    <i name="e_fr_energy">     -0.48985574 </i>
    <i name="e_wo_entrp">     -0.48985574 </i>
    <i name="e_0_energy">     -0.48985574 </i>
   </energy>
  </scstep>
  <scstep>
   <time name="total">    1.22    0.75</time>
   <energy>
    <i name="e_fr_energy">     -0.48985576 </i>
    <i name="e_wo_entrp">     -0.48985576 </i>
    <i name="e_0_energy">     -0.48985576 </i>
   </energy>
  </scstep>
  <scstep>
   <time name="total">    1.16    0.69</time>
   <energy>
    <i name="e_fr_energy">     -0.48985576 </i>
    <i name="e_wo_entrp">     -0.48985576 </i>
    <i name="e_0_energy">     -0.48985576 </i>
   </energy>
  </scstep>
  <scstep>
   <time name="total">    1.15    0.68</time>
   <energy>
    <i name="e_fr_energy">     -0.48985576 </i>
    <i name="e_wo_entrp">     -0.48985576 </i>
    <i name="e_0_energy">     -0.48985576 </i>
   </energy>
  </scstep>
  <scstep>
   <time name="total">    1.79    0.77</time>
   <energy>
    <i name="e_fr_energy">     -0.48985576 </i>
    <i name="e_wo_entrp">     -0.48985576 </i>
    <i name="e_0_energy">     -0.48985576 </i>
   </energy>
  </scstep>
  <scstep>
   <time name="total">    1.14    0.67</time>
   <energy>
    <i name="e_fr_energy">     -0.48985576 </i>
    <i name="e_wo_entrp">     -0.48985576 </i>
    <i name="e_0_energy">     -0.48985576 </i>
   </energy>
  </scstep>
  <varray name="dielectric_ipa" >
   <v>       2.58976194      -0.00000017       0.00000000 </v>
   <v>       0.00000017       2.58976194       0.00000000 </v>
   <v>       0.00000000       0.00000000       2.60380209 </v>
  </varray>
  <kpoints>
   <generation param="Gamma">
    <v type="int" name="divisions">       4        4        4 </v>
    <v name="usershift">      0.00000000       0.00000000       0.00000000 </v>
    <v name="genvec1">      0.25000000       0.00000000       0.00000000 </v>
    <v name="genvec2">      0.00000000       0.25000000       0.00000000 </v>
    <v name="genvec3">      0.00000000       0.00000000       0.25000000 </v>
    <v name="shift">      0.00000000       0.00000000       0.00000000 </v>
   </generation>
   <varray name="kpointlist" >
    <v>       0.00000000       0.00000000       0.00000000 </v>
    <v>       0.25000000       0.00000000       0.00000000 </v>
    <v>       0.00000000       0.25000000       0.00000000 </v>
    <v>      -0.25000000       0.25000000       0.00000000 </v>
    <v>       0.50000000       0.00000000       0.00000000 </v>
    <v>       0.00000000       0.50000000       0.00000000 </v>
    <v>       0.50000000       0.50000000       0.00000000 </v>
    <v>       0.25000000       0.25000000       0.00000000 </v>
    <v>      -0.25000000       0.50000000       0.00000000 </v>
    <v>       0.50000000       0.25000000       0.00000000 </v>
    <v>       0.00000000       0.00000000       0.25000000 </v>
    <v>       0.25000000       0.00000000       0.25000000 </v>
    <v>       0.00000000       0.25000000       0.25000000 </v>
    <v>      -0.25000000       0.25000000       0.25000000 </v>
    <v>      -0.25000000       0.00000000       0.25000000 </v>
    <v>       0.00000000      -0.25000000       0.25000000 </v>
    <v>       0.25000000      -0.25000000       0.25000000 </v>
    <v>       0.50000000       0.00000000       0.25000000 </v>
    <v>       0.00000000       0.50000000       0.25000000 </v>
    <v>       0.50000000       0.50000000       0.25000000 </v>
    <v>       0.25000000       0.25000000       0.25000000 </v>
    <v>      -0.25000000       0.50000000       0.25000000 </v>
    <v>       0.50000000       0.25000000       0.25000000 </v>
    <v>      -0.25000000      -0.25000000       0.25000000 </v>
    <v>       0.25000000       0.50000000       0.25000000 </v>
    <v>       0.50000000      -0.25000000       0.25000000 </v>
    <v>       0.00000000       0.00000000       0.50000000 </v>
    <v>       0.25000000       0.00000000       0.50000000 </v>
    <v>       0.00000000       0.25000000       0.50000000 </v>
    <v>      -0.25000000       0.25000000       0.50000000 </v>
    <v>       0.50000000       0.00000000       0.50000000 </v>
    <v>       0.00000000       0.50000000       0.50000000 </v>
    <v>       0.50000000       0.50000000       0.50000000 </v>
    <v>       0.25000000       0.25000000       0.50000000 </v>
    <v>      -0.25000000       0.50000000       0.50000000 </v>
    <v>       0.50000000       0.25000000       0.50000000 </v>
   </varray>
   <varray name="weights" >
    <v>       0.01562500 </v>
    <v>       0.03125000 </v>
    <v>       0.03125000 </v>
    <v>       0.03125000 </v>
    <v>       0.01562500 </v>
    <v>       0.01562500 </v>
    <v>       0.01562500 </v>
    <v>       0.03125000 </v>
    <v>       0.03125000 </v>
    <v>       0.03125000 </v>
    <v>       0.03125000 </v>
    <v>       0.03125000 </v>
    <v>       0.03125000 </v>
    <v>       0.03125000 </v>
    <v>       0.03125000 </v>
    <v>       0.03125000 </v>
    <v>       0.03125000 </v>
    <v>       0.03125000 </v>
    <v>       0.03125000 </v>
    <v>       0.03125000 </v>
    <v>       0.03125000 </v>
    <v>       0.03125000 </v>
    <v>       0.03125000 </v>
    <v>       0.03125000 </v>
    <v>       0.03125000 </v>
    <v>       0.03125000 </v>
    <v>       0.01562500 </v>
    <v>       0.03125000 </v>
    <v>       0.03125000 </v>
    <v>       0.03125000 </v>
    <v>       0.01562500 </v>
    <v>       0.01562500 </v>
    <v>       0.01562500 </v>
    <v>       0.03125000 </v>
    <v>       0.03125000 </v>
    <v>       0.03125000 </v>
   </varray>
  </kpoints>
  <scstep>
   <time name="total">    2.27    1.80</time>
   <energy>
    <i name="e_fr_energy">     -0.48312491 </i>
    <i name="e_wo_entrp">     -0.48312491 </i>
    <i name="e_0_energy">     -0.48312491 </i>
   </energy>
  </scstep>
  <scstep>
   <time name="total">    2.33    1.85</time>
   <energy>
    <i name="e_fr_energy">     -0.48537230 </i>
    <i name="e_wo_entrp">     -0.48537230 </i>
    <i name="e_0_energy">     -0.48537230 </i>
   </energy>
  </scstep>
  <scstep>
   <time name="total">    2.37    1.87</time>
   <energy>
    <i name="e_fr_energy">     -0.46528180 </i>
    <i name="e_wo_entrp">     -0.46528180 </i>
    <i name="e_0_energy">     -0.46528180 </i>
   </energy>
  </scstep>
  <scstep>
   <time name="total">    2.36    1.87</time>
   <energy>
    <i name="e_fr_energy">     -0.47612670 </i>
    <i name="e_wo_entrp">     -0.47612670 </i>
    <i name="e_0_energy">     -0.47612670 </i>
   </energy>
  </scstep>
  <scstep>
   <time name="total">    2.35    1.86</time>
   <energy>
    <i name="e_fr_energy">     -0.49390308 </i>
    <i name="e_wo_entrp">     -0.49390308 </i>
    <i name="e_0_energy">     -0.49390308 </i>
   </energy>
  </scstep>
  <scstep>
   <time name="total">    2.31    1.83</time>
   <energy>
    <i name="e_fr_energy">     -0.49684326 </i>
    <i name="e_wo_entrp">     -0.49684326 </i>
    <i name="e_0_energy">     -0.49684326 </i>
   </energy>
  </scstep>
  <scstep>
   <time name="total">    2.35    1.87</time>
   <energy>
    <i name="e_fr_energy">     -0.49707799 </i>
    <i name="e_wo_entrp">     -0.49707799 </i>
    <i name="e_0_energy">     -0.49707799 </i>
   </energy>
  </scstep>
  <scstep>
   <time name="total">    2.35    1.87</time>
   <energy>
    <i name="e_fr_energy">     -0.49730822 </i>
    <i name="e_wo_entrp">     -0.49730822 </i>
    <i name="e_0_energy">     -0.49730822 </i>
   </energy>
  </scstep>
  <scstep>
   <time name="total">    2.35    1.87</time>
   <energy>
    <i name="e_fr_energy">     -0.49737289 </i>
    <i name="e_wo_entrp">     -0.49737289 </i>
    <i name="e_0_energy">     -0.49737289 </i>
   </energy>
  </scstep>
  <scstep>
   <time name="total">    2.36    1.87</time>
   <energy>
    <i name="e_fr_energy">     -0.49736772 </i>
    <i name="e_wo_entrp">     -0.49736772 </i>
    <i name="e_0_energy">     -0.49736772 </i>
   </energy>
  </scstep>
  <scstep>
   <time name="total">    2.34    1.86</time>
   <energy>
    <i name="e_fr_energy">     -0.49736888 </i>
    <i name="e_wo_entrp">     -0.49736888 </i>
    <i name="e_0_energy">     -0.49736888 </i>
   </energy>
  </scstep>
  <scstep>
   <time name="total">    2.30    1.81</time>
   <energy>
    <i name="e_fr_energy">     -0.49736905 </i>
    <i name="e_wo_entrp">     -0.49736905 </i>
    <i name="e_0_energy">     -0.49736905 </i>
   </energy>
  </scstep>
  <scstep>
   <time name="total">    2.29    1.80</time>
   <energy>
    <i name="e_fr_energy">     -0.49736896 </i>
    <i name="e_wo_entrp">     -0.49736896 </i>
    <i name="e_0_energy">     -0.49736896 </i>
   </energy>
  </scstep>
  <scstep>
   <time name="total">    2.30    1.81</time>
   <energy>
    <i name="e_fr_energy">     -0.49736891 </i>
    <i name="e_wo_entrp">     -0.49736891 </i>
    <i name="e_0_energy">     -0.49736891 </i>
   </energy>
  </scstep>
  <kpoints>
   <generation param="Gamma">
    <v type="int" name="divisions">       4        4        4 </v>
    <v name="usershift">      0.00000000       0.00000000       0.00000000 </v>
    <v name="genvec1">      0.25000000       0.00000000       0.00000000 </v>
    <v name="genvec2">      0.00000000       0.25000000       0.00000000 </v>
    <v name="genvec3">      0.00000000       0.00000000       0.25000000 </v>
    <v name="shift">      0.00000000       0.00000000       0.00000000 </v>
   </generation>
   <varray name="kpointlist" >
    <v>       0.00000000       0.00000000       0.00000000 </v>
    <v>       0.25000000       0.00000000       0.00000000 </v>
    <v>       0.00000000       0.25000000       0.00000000 </v>
    <v>      -0.25000000       0.25000000       0.00000000 </v>
    <v>       0.50000000       0.00000000       0.00000000 </v>
    <v>       0.00000000       0.50000000       0.00000000 </v>
    <v>       0.50000000       0.50000000       0.00000000 </v>
    <v>       0.25000000       0.25000000       0.00000000 </v>
    <v>      -0.25000000       0.50000000       0.00000000 </v>
    <v>       0.50000000       0.25000000       0.00000000 </v>
    <v>       0.00000000       0.00000000       0.25000000 </v>
    <v>       0.25000000       0.00000000       0.25000000 </v>
    <v>       0.00000000       0.25000000       0.25000000 </v>
    <v>      -0.25000000       0.25000000       0.25000000 </v>
    <v>      -0.25000000       0.00000000       0.25000000 </v>
    <v>       0.00000000      -0.25000000       0.25000000 </v>
    <v>       0.25000000      -0.25000000       0.25000000 </v>
    <v>       0.50000000       0.00000000       0.25000000 </v>
    <v>       0.00000000       0.50000000       0.25000000 </v>
    <v>       0.50000000       0.50000000       0.25000000 </v>
    <v>       0.25000000       0.25000000       0.25000000 </v>
    <v>      -0.25000000       0.50000000       0.25000000 </v>
    <v>       0.50000000       0.25000000       0.25000000 </v>
    <v>      -0.25000000      -0.25000000       0.25000000 </v>
    <v>       0.25000000       0.50000000       0.25000000 </v>
    <v>       0.50000000      -0.25000000       0.25000000 </v>
    <v>       0.00000000       0.00000000       0.50000000 </v>
    <v>       0.25000000       0.00000000       0.50000000 </v>
    <v>       0.00000000       0.25000000       0.50000000 </v>
    <v>      -0.25000000       0.25000000       0.50000000 </v>
    <v>       0.50000000       0.00000000       0.50000000 </v>
    <v>       0.00000000       0.50000000       0.50000000 </v>
    <v>       0.50000000       0.50000000       0.50000000 </v>
    <v>       0.25000000       0.25000000       0.50000000 </v>
    <v>      -0.25000000       0.50000000       0.50000000 </v>
    <v>       0.50000000       0.25000000       0.50000000 </v>
   </varray>
   <varray name="weights" >
    <v>       0.01562500 </v>
    <v>       0.03125000 </v>
    <v>       0.03125000 </v>
    <v>       0.03125000 </v>
    <v>       0.01562500 </v>
    <v>       0.01562500 </v>
    <v>       0.01562500 </v>
    <v>       0.03125000 </v>
    <v>       0.03125000 </v>
    <v>       0.03125000 </v>
    <v>       0.03125000 </v>
    <v>       0.03125000 </v>
    <v>       0.03125000 </v>
    <v>       0.03125000 </v>
    <v>       0.03125000 </v>
    <v>       0.03125000 </v>
    <v>       0.03125000 </v>
    <v>       0.03125000 </v>
    <v>       0.03125000 </v>
    <v>       0.03125000 </v>
    <v>       0.03125000 </v>
    <v>       0.03125000 </v>
    <v>       0.03125000 </v>
    <v>       0.03125000 </v>
    <v>       0.03125000 </v>
    <v>       0.03125000 </v>
    <v>       0.01562500 </v>
    <v>       0.03125000 </v>
    <v>       0.03125000 </v>
    <v>       0.03125000 </v>
    <v>       0.01562500 </v>
    <v>       0.01562500 </v>
    <v>       0.01562500 </v>
    <v>       0.03125000 </v>
    <v>       0.03125000 </v>
    <v>       0.03125000 </v>
   </varray>
  </kpoints>
  <scstep>
   <time name="total">    2.25    1.78</time>
   <energy>
    <i name="e_fr_energy">     -0.48316487 </i>
    <i name="e_wo_entrp">     -0.48316487 </i>
    <i name="e_0_energy">     -0.48316487 </i>
   </energy>
  </scstep>
  <scstep>
   <time name="total">    2.33    1.85</time>
   <energy>
    <i name="e_fr_energy">     -0.48537066 </i>
    <i name="e_wo_entrp">     -0.48537066 </i>
    <i name="e_0_energy">     -0.48537066 </i>
   </energy>
  </scstep>
  <scstep>
   <time name="total">    2.33    1.85</time>
   <energy>
    <i name="e_fr_energy">     -0.46512761 </i>
    <i name="e_wo_entrp">     -0.46512761 </i>
    <i name="e_0_energy">     -0.46512761 </i>
   </energy>
  </scstep>
  <scstep>
   <time name="total">    2.34    1.86</time>
   <energy>
    <i name="e_fr_energy">     -0.47598423 </i>
    <i name="e_wo_entrp">     -0.47598423 </i>
    <i name="e_0_energy">     -0.47598423 </i>
   </energy>
  </scstep>
  <scstep>
   <time name="total">    2.33    1.85</time>
   <energy>
    <i name="e_fr_energy">     -0.49373720 </i>
    <i name="e_wo_entrp">     -0.49373720 </i>
    <i name="e_0_energy">     -0.49373720 </i>
   </energy>
  </scstep>
  <scstep>
   <time name="total">    2.31    1.83</time>
   <energy>
    <i name="e_fr_energy">     -0.49666262 </i>
    <i name="e_wo_entrp">     -0.49666262 </i>
    <i name="e_0_energy">     -0.49666262 </i>
   </energy>
  </scstep>
  <scstep>
   <time name="total">    2.35    1.87</time>
   <energy>
    <i name="e_fr_energy">     -0.49690751 </i>
    <i name="e_wo_entrp">     -0.49690751 </i>
    <i name="e_0_energy">     -0.49690751 </i>
   </energy>
  </scstep>
  <scstep>
   <time name="total">    2.35    1.87</time>
   <energy>
    <i name="e_fr_energy">     -0.49713787 </i>
    <i name="e_wo_entrp">     -0.49713787 </i>
    <i name="e_0_energy">     -0.49713787 </i>
   </energy>
  </scstep>
  <scstep>
   <time name="total">    2.35    1.87</time>
   <energy>
    <i name="e_fr_energy">     -0.49720289 </i>
    <i name="e_wo_entrp">     -0.49720289 </i>
    <i name="e_0_energy">     -0.49720289 </i>
   </energy>
  </scstep>
  <scstep>
   <time name="total">    2.60    1.91</time>
   <energy>
    <i name="e_fr_energy">     -0.49719802 </i>
    <i name="e_wo_entrp">     -0.49719802 </i>
    <i name="e_0_energy">     -0.49719802 </i>
   </energy>
  </scstep>
  <scstep>
   <time name="total">    2.47    1.88</time>
   <energy>
    <i name="e_fr_energy">     -0.49719925 </i>
    <i name="e_wo_entrp">     -0.49719925 </i>
    <i name="e_0_energy">     -0.49719925 </i>
   </energy>
  </scstep>
  <scstep>
   <time name="total">    2.28    1.79</time>
   <energy>
    <i name="e_fr_energy">     -0.49719933 </i>
    <i name="e_wo_entrp">     -0.49719933 </i>
    <i name="e_0_energy">     -0.49719933 </i>
   </energy>
  </scstep>
  <scstep>
   <time name="total">    2.28    1.79</time>
   <energy>
    <i name="e_fr_energy">     -0.49719938 </i>
    <i name="e_wo_entrp">     -0.49719938 </i>
    <i name="e_0_energy">     -0.49719938 </i>
   </energy>
  </scstep>
  <scstep>
   <time name="total">    2.29    1.80</time>
   <energy>
    <i name="e_fr_energy">     -0.49719930 </i>
    <i name="e_wo_entrp">     -0.49719930 </i>
    <i name="e_0_energy">     -0.49719930 </i>
   </energy>
  </scstep>
  <kpoints>
   <generation param="Gamma">
    <v type="int" name="divisions">       4        4        4 </v>
    <v name="usershift">      0.00000000       0.00000000       0.00000000 </v>
    <v name="genvec1">      0.25000000       0.00000000       0.00000000 </v>
    <v name="genvec2">      0.00000000       0.25000000       0.00000000 </v>
    <v name="genvec3">      0.00000000       0.00000000       0.25000000 </v>
    <v name="shift">      0.00000000       0.00000000       0.00000000 </v>
   </generation>
   <varray name="kpointlist" >
    <v>       0.00000000       0.00000000       0.00000000 </v>
    <v>       0.25000000       0.00000000       0.00000000 </v>
    <v>       0.50000000       0.00000000       0.00000000 </v>
    <v>       0.25000000       0.25000000       0.00000000 </v>
    <v>       0.00000000       0.00000000       0.25000000 </v>
    <v>       0.25000000       0.00000000       0.25000000 </v>
    <v>       0.00000000       0.25000000       0.25000000 </v>
    <v>       0.50000000       0.00000000       0.25000000 </v>
    <v>       0.25000000       0.25000000       0.25000000 </v>
    <v>      -0.25000000       0.50000000       0.25000000 </v>
    <v>       0.00000000       0.00000000       0.50000000 </v>
    <v>       0.25000000       0.00000000       0.50000000 </v>
    <v>       0.50000000       0.00000000       0.50000000 </v>
    <v>       0.25000000       0.25000000       0.50000000 </v>
   </varray>
   <varray name="weights" >
    <v>       0.01562500 </v>
    <v>       0.09375000 </v>
    <v>       0.04687500 </v>
    <v>       0.09375000 </v>
    <v>       0.03125000 </v>
    <v>       0.09375000 </v>
    <v>       0.09375000 </v>
    <v>       0.09375000 </v>
    <v>       0.09375000 </v>
    <v>       0.09375000 </v>
    <v>       0.01562500 </v>
    <v>       0.09375000 </v>
    <v>       0.04687500 </v>
    <v>       0.09375000 </v>
   </varray>
  </kpoints>
  <scstep>
   <time name="total">    1.24    0.77</time>
   <energy>
    <i name="e_fr_energy">     -0.48760549 </i>
    <i name="e_wo_entrp">     -0.48760549 </i>
    <i name="e_0_energy">     -0.48760549 </i>
   </energy>
  </scstep>
  <scstep>
   <time name="total">    1.28    0.80</time>
   <energy>
    <i name="e_fr_energy">     -0.48965550 </i>
    <i name="e_wo_entrp">     -0.48965550 </i>
    <i name="e_0_energy">     -0.48965550 </i>
   </energy>
  </scstep>
  <scstep>
   <time name="total">    1.28    0.79</time>
   <energy>
    <i name="e_fr_energy">     -0.47437917 </i>
    <i name="e_wo_entrp">     -0.47437917 </i>
    <i name="e_0_energy">     -0.47437917 </i>
   </energy>
  </scstep>
  <scstep>
   <time name="total">    1.28    0.80</time>
   <energy>
    <i name="e_fr_energy">     -0.48760649 </i>
    <i name="e_wo_entrp">     -0.48760649 </i>
    <i name="e_0_energy">     -0.48760649 </i>
   </energy>
  </scstep>
  <scstep>
   <time name="total">    1.28    0.79</time>
   <energy>
    <i name="e_fr_energy">     -0.50386734 </i>
    <i name="e_wo_entrp">     -0.50386734 </i>
    <i name="e_0_energy">     -0.50386734 </i>
   </energy>
  </scstep>
  <scstep>
   <time name="total">    1.26    0.77</time>
   <energy>
    <i name="e_fr_energy">     -0.50671094 </i>
    <i name="e_wo_entrp">     -0.50671094 </i>
    <i name="e_0_energy">     -0.50671094 </i>
   </energy>
  </scstep>
  <scstep>
   <time name="total">    1.29    0.82</time>
   <energy>
    <i name="e_fr_energy">     -0.50695531 </i>
    <i name="e_wo_entrp">     -0.50695531 </i>
    <i name="e_0_energy">     -0.50695531 </i>
   </energy>
  </scstep>
  <scstep>
   <time name="total">    1.28    0.79</time>
   <energy>
    <i name="e_fr_energy">     -0.50722124 </i>
    <i name="e_wo_entrp">     -0.50722124 </i>
    <i name="e_0_energy">     -0.50722124 </i>
   </energy>
  </scstep>
  <scstep>
   <time name="total">    1.29    0.80</time>
   <energy>
    <i name="e_fr_energy">     -0.50724384 </i>
    <i name="e_wo_entrp">     -0.50724384 </i>
    <i name="e_0_energy">     -0.50724384 </i>
   </energy>
  </scstep>
  <scstep>
   <time name="total">    1.29    0.80</time>
   <energy>
    <i name="e_fr_energy">     -0.50724502 </i>
    <i name="e_wo_entrp">     -0.50724502 </i>
    <i name="e_0_energy">     -0.50724502 </i>
   </energy>
  </scstep>
  <scstep>
   <time name="total">    1.98    0.90</time>
   <energy>
    <i name="e_fr_energy">     -0.50724417 </i>
    <i name="e_wo_entrp">     -0.50724417 </i>
    <i name="e_0_energy">     -0.50724417 </i>
   </energy>
  </scstep>
  <scstep>
   <time name="total">    1.24    0.76</time>
   <energy>
    <i name="e_fr_energy">     -0.50724441 </i>
    <i name="e_wo_entrp">     -0.50724441 </i>
    <i name="e_0_energy">     -0.50724441 </i>
   </energy>
  </scstep>
  <scstep>
   <time name="total">    1.27    0.78</time>
   <energy>
    <i name="e_fr_energy">     -0.50724438 </i>
    <i name="e_wo_entrp">     -0.50724438 </i>
    <i name="e_0_energy">     -0.50724438 </i>
   </energy>
  </scstep>
  <scstep>
   <time name="total">    1.23    0.75</time>
   <energy>
    <i name="e_fr_energy">     -0.50724438 </i>
    <i name="e_wo_entrp">     -0.50724438 </i>
    <i name="e_0_energy">     -0.50724438 </i>
   </energy>
  </scstep>
  <kpoints>
   <generation param="Gamma">
    <v type="int" name="divisions">       4        4        4 </v>
    <v name="usershift">      0.00000000       0.00000000       0.00000000 </v>
    <v name="genvec1">      0.25000000       0.00000000       0.00000000 </v>
    <v name="genvec2">      0.00000000       0.25000000       0.00000000 </v>
    <v name="genvec3">      0.00000000       0.00000000       0.25000000 </v>
    <v name="shift">      0.00000000       0.00000000       0.00000000 </v>
   </generation>
   <varray name="kpointlist" >
    <v>       0.00000000       0.00000000       0.00000000 </v>
    <v>       0.25000000       0.00000000       0.00000000 </v>
    <v>       0.50000000       0.00000000       0.00000000 </v>
    <v>       0.25000000       0.25000000       0.00000000 </v>
    <v>       0.00000000       0.00000000       0.25000000 </v>
    <v>       0.25000000       0.00000000       0.25000000 </v>
    <v>       0.00000000       0.25000000       0.25000000 </v>
    <v>       0.50000000       0.00000000       0.25000000 </v>
    <v>       0.25000000       0.25000000       0.25000000 </v>
    <v>      -0.25000000       0.50000000       0.25000000 </v>
    <v>       0.00000000       0.00000000       0.50000000 </v>
    <v>       0.25000000       0.00000000       0.50000000 </v>
    <v>       0.50000000       0.00000000       0.50000000 </v>
    <v>       0.25000000       0.25000000       0.50000000 </v>
   </varray>
   <varray name="weights" >
    <v>       0.01562500 </v>
    <v>       0.09375000 </v>
    <v>       0.04687500 </v>
    <v>       0.09375000 </v>
    <v>       0.03125000 </v>
    <v>       0.09375000 </v>
    <v>       0.09375000 </v>
    <v>       0.09375000 </v>
    <v>       0.09375000 </v>
    <v>       0.09375000 </v>
    <v>       0.01562500 </v>
    <v>       0.09375000 </v>
    <v>       0.04687500 </v>
    <v>       0.09375000 </v>
   </varray>
  </kpoints>
  <varray name="dielectric_dft" >
   <v>       2.48082318      -0.00000060       0.00000000 </v>
   <v>       0.00000060       2.48082318       0.00000000 </v>
   <v>       0.00000000       0.00000000       2.51334143 </v>
  </varray>
  <varray name="epsilon" >
   <v>       2.48082318      -0.00000060       0.00000000 </v>
   <v>       0.00000060       2.48082318       0.00000000 </v>
   <v>       0.00000000       0.00000000       2.51334143 </v>
  </varray>
  <kpoints>
   <generation param="Gamma">
    <v type="int" name="divisions">       4        4        4 </v>
    <v name="usershift">      0.00000000       0.00000000       0.00000000 </v>
    <v name="genvec1">      0.25000000       0.00000000       0.00000000 </v>
    <v name="genvec2">      0.00000000       0.25000000       0.00000000 </v>
    <v name="genvec3">      0.00000000       0.00000000       0.25000000 </v>
    <v name="shift">      0.00000000       0.00000000       0.00000000 </v>
   </generation>
   <varray name="kpointlist" >
    <v>       0.00000000       0.00000000       0.00000000 </v>
    <v>       0.25000000       0.00000000       0.00000000 </v>
    <v>       0.50000000       0.00000000       0.00000000 </v>
    <v>       0.25000000       0.25000000       0.00000000 </v>
    <v>       0.00000000       0.00000000       0.25000000 </v>
    <v>       0.25000000       0.00000000       0.25000000 </v>
    <v>       0.00000000       0.25000000       0.25000000 </v>
    <v>       0.50000000       0.00000000       0.25000000 </v>
    <v>       0.25000000       0.25000000       0.25000000 </v>
    <v>      -0.25000000       0.50000000       0.25000000 </v>
    <v>       0.00000000       0.00000000       0.50000000 </v>
    <v>       0.25000000       0.00000000       0.50000000 </v>
    <v>       0.50000000       0.00000000       0.50000000 </v>
    <v>       0.25000000       0.25000000       0.50000000 </v>
   </varray>
   <varray name="weights" >
    <v>       0.01562500 </v>
    <v>       0.09375000 </v>
    <v>       0.04687500 </v>
    <v>       0.09375000 </v>
    <v>       0.03125000 </v>
    <v>       0.09375000 </v>
    <v>       0.09375000 </v>
    <v>       0.09375000 </v>
    <v>       0.09375000 </v>
    <v>       0.09375000 </v>
    <v>       0.01562500 </v>
    <v>       0.09375000 </v>
    <v>       0.04687500 </v>
    <v>       0.09375000 </v>
   </varray>
  </kpoints>
  <array name="born_charges" >
   <dimension dim="1">ion</dimension>
   <set>
    <v>       2.98057504      -0.00052716      -0.00106916 </v>
    <v>      -0.00034477       3.62050974      -0.32132721 </v>
    <v>      -0.00053262       0.27802228       3.42536372 </v>
   </set>
   <set>
    <v>       3.46014851       0.27722665       0.27881210 </v>
    <v>       0.27740903       3.14093627       0.15973769 </v>
    <v>      -0.24050805      -0.13947240       3.42536372 </v>
   </set>
   <set>
    <v>       3.46090363      -0.27697306      -0.27774295 </v>
    <v>      -0.27679068       3.14018116       0.16158952 </v>
    <v>       0.24104067      -0.13854988       3.42536372 </v>
   </set>
   <set>
    <v>      -1.31078598      -0.49330959      -0.31056676 </v>
    <v>      -0.43621554      -1.98924511      -0.67923671 </v>
    <v>      -0.24330426      -0.72136491      -1.71298278 </v>
   </set>
   <set>
    <v>      -2.22212651      -0.08994716       0.74351963 </v>
    <v>      -0.03285312      -1.07790457       0.07065966 </v>
    <v>       0.74637246       0.14997479      -1.71298278 </v>
   </set>
   <set>
    <v>      -1.41713414       0.49761568      -0.43295287 </v>
    <v>       0.55470972      -1.88289695       0.60857706 </v>
    <v>      -0.50306821       0.57139012      -1.71298278 </v>
   </set>
   <set>
    <v>      -1.31156128       0.49340474       0.30978573 </v>
    <v>       0.43612831      -1.98949242      -0.67872758 </v>
    <v>       0.24355895      -0.72154476      -1.71238094 </v>
   </set>
   <set>
    <v>      -2.22250926       0.08980775      -0.74268819 </v>
    <v>       0.03253132      -1.07854444       0.07108148 </v>
    <v>      -0.74665557       0.14984415      -1.71238094 </v>
   </set>
   <set>
    <v>      -1.41751002      -0.49729785       0.43290246 </v>
    <v>      -0.55457427      -1.88354368       0.60764610 </v>
    <v>       0.50309662       0.57170062      -1.71238094 </v>
   </set>
  </array>
  <time name="totalsc">  231.47  136.61</time>
  <eigenvalues>
   <array>
    <dimension dim="1">band</dimension>
    <dimension dim="2">kpoint</dimension>
    <dimension dim="3">spin</dimension>
    <field>eigene</field>
    <field>occ</field>
    <set>
     <set comment="spin 1">
      <set comment="kpoint 1">
       <r>  -18.1720    1.0000 </r>
       <r>  -16.6202    1.0000 </r>
       <r>  -16.6202    1.0000 </r>
       <r>  -15.9515    1.0000 </r>
       <r>  -15.9422    1.0000 </r>
       <r>  -15.9422    1.0000 </r>
       <r>   -6.8790    1.0000 </r>
       <r>   -6.8790    1.0000 </r>
       <r>   -4.1470    1.0000 </r>
       <r>   -4.0635    1.0000 </r>
       <r>   -3.9112    1.0000 </r>
       <r>   -3.9112    1.0000 </r>
       <r>   -1.6856    1.0000 </r>
       <r>   -1.6856    1.0000 </r>
       <r>   -1.3751    1.0000 </r>
       <r>   -1.1504    1.0000 </r>
       <r>   -0.1555    1.0000 </r>
       <r>   -0.1555    1.0000 </r>
       <r>   -0.0981    1.0000 </r>
       <r>    0.2614    1.0000 </r>
       <r>    0.2614    1.0000 </r>
       <r>    0.4587    1.0000 </r>
       <r>    1.0042    1.0000 </r>
       <r>    1.0042    1.0000 </r>
       <r>    7.3235    0.0000 </r>
       <r>   10.6085    0.0000 </r>
       <r>   10.6085    0.0000 </r>
       <r>   11.2366    0.0000 </r>
       <r>   11.2366    0.0000 </r>
      </set>
      <set comment="kpoint 2">
       <r>  -17.9880    1.0000 </r>
       <r>  -16.8198    1.0000 </r>
       <r>  -16.5938    1.0000 </r>
       <r>  -16.0190    1.0000 </r>
       <r>  -15.9756    1.0000 </r>
       <r>  -15.9419    1.0000 </r>
       <r>   -6.9569    1.0000 </r>
       <r>   -6.5092    1.0000 </r>
       <r>   -4.2177    1.0000 </r>
       <r>   -4.1543    1.0000 </r>
       <r>   -4.0324    1.0000 </r>
       <r>   -3.6189    1.0000 </r>
       <r>   -1.8729    1.0000 </r>
       <r>   -1.5567    1.0000 </r>
       <r>   -1.3478    1.0000 </r>
       <r>   -0.8969    1.0000 </r>
       <r>   -0.6972    1.0000 </r>
       <r>   -0.2393    1.0000 </r>
       <r>   -0.1600    1.0000 </r>
       <r>    0.1793    1.0000 </r>
       <r>    0.2770    1.0000 </r>
       <r>    0.4210    1.0000 </r>
       <r>    1.0536    1.0000 </r>
       <r>    1.1416    1.0000 </r>
       <r>    8.2330    0.0000 </r>
       <r>   10.6697    0.0000 </r>
       <r>   10.7200    0.0000 </r>
       <r>   11.2073    0.0000 </r>
       <r>   11.4827    0.0000 </r>
      </set>
      <set comment="kpoint 3">
       <r>  -17.6651    1.0000 </r>
       <r>  -17.1820    1.0000 </r>
       <r>  -16.5650    1.0000 </r>
       <r>  -16.0454    1.0000 </r>
       <r>  -16.0009    1.0000 </r>
       <r>  -15.9674    1.0000 </r>
       <r>   -7.0306    1.0000 </r>
       <r>   -6.0440    1.0000 </r>
       <r>   -4.5561    1.0000 </r>
       <r>   -4.0986    1.0000 </r>
       <r>   -4.0867    1.0000 </r>
       <r>   -3.2818    1.0000 </r>
       <r>   -1.8239    1.0000 </r>
       <r>   -1.6228    1.0000 </r>
       <r>   -1.4347    1.0000 </r>
       <r>   -1.0012    1.0000 </r>
       <r>   -0.7925    1.0000 </r>
       <r>   -0.4795    1.0000 </r>
       <r>   -0.2877    1.0000 </r>
       <r>    0.1952    1.0000 </r>
       <r>    0.2821    1.0000 </r>
       <r>    0.5595    1.0000 </r>
       <r>    1.0151    1.0000 </r>
       <r>    1.2412    1.0000 </r>
       <r>    9.6352    0.0000 </r>
       <r>   10.3716    0.0000 </r>
       <r>   10.9660    0.0000 </r>
       <r>   10.9891    0.0000 </r>
       <r>   11.9985    0.0000 </r>
      </set>
      <set comment="kpoint 4">
       <r>  -17.6756    1.0000 </r>
       <r>  -17.1515    1.0000 </r>
       <r>  -16.5959    1.0000 </r>
       <r>  -16.0405    1.0000 </r>
       <r>  -15.9991    1.0000 </r>
       <r>  -15.9638    1.0000 </r>
       <r>   -7.0589    1.0000 </r>
       <r>   -5.9058    1.0000 </r>
       <r>   -4.8493    1.0000 </r>
       <r>   -4.0742    1.0000 </r>
       <r>   -3.9324    1.0000 </r>
       <r>   -3.2896    1.0000 </r>
       <r>   -1.7834    1.0000 </r>
       <r>   -1.6280    1.0000 </r>
       <r>   -1.4652    1.0000 </r>
       <r>   -0.8975    1.0000 </r>
       <r>   -0.8476    1.0000 </r>
       <r>   -0.4277    1.0000 </r>
       <r>   -0.2437    1.0000 </r>
       <r>   -0.0086    1.0000 </r>
       <r>    0.2523    1.0000 </r>
       <r>    0.6679    1.0000 </r>
       <r>    0.9804    1.0000 </r>
       <r>    1.2630    1.0000 </r>
       <r>    9.4762    0.0000 </r>
       <r>   10.7358    0.0000 </r>
       <r>   10.7718    0.0000 </r>
       <r>   11.4411    0.0000 </r>
       <r>   11.5796    0.0000 </r>
      </set>
      <set comment="kpoint 5">
       <r>  -18.0467    1.0000 </r>
       <r>  -17.1801    1.0000 </r>
       <r>  -16.1700    1.0000 </r>
       <r>  -15.9555    1.0000 </r>
       <r>  -15.9535    1.0000 </r>
       <r>  -15.9223    1.0000 </r>
       <r>   -7.6522    1.0000 </r>
       <r>   -5.8674    1.0000 </r>
       <r>   -4.3684    1.0000 </r>
       <r>   -4.1815    1.0000 </r>
       <r>   -4.1300    1.0000 </r>
       <r>   -3.5528    1.0000 </r>
       <r>   -1.7666    1.0000 </r>
       <r>   -1.4403    1.0000 </r>
       <r>   -1.3094    1.0000 </r>
       <r>   -0.9471    1.0000 </r>
       <r>   -0.4233    1.0000 </r>
       <r>   -0.2931    1.0000 </r>
       <r>   -0.1654    1.0000 </r>
       <r>   -0.1610    1.0000 </r>
       <r>    0.1778    1.0000 </r>
       <r>    0.6299    1.0000 </r>
       <r>    1.0941    1.0000 </r>
       <r>    1.1786    1.0000 </r>
       <r>    7.9359    0.0000 </r>
       <r>   10.4178    0.0000 </r>
       <r>   10.6311    0.0000 </r>
       <r>   10.6443    0.0000 </r>
       <r>   11.6494    0.0000 </r>
      </set>
      <set comment="kpoint 6">
       <r>  -17.8796    1.0000 </r>
       <r>  -17.1562    1.0000 </r>
       <r>  -16.3551    1.0000 </r>
       <r>  -16.0144    1.0000 </r>
       <r>  -15.9929    1.0000 </r>
       <r>  -15.9395    1.0000 </r>
       <r>   -7.3280    1.0000 </r>
       <r>   -5.9250    1.0000 </r>
       <r>   -4.6327    1.0000 </r>
       <r>   -4.0961    1.0000 </r>
       <r>   -3.8303    1.0000 </r>
       <r>   -3.6546    1.0000 </r>
       <r>   -1.9392    1.0000 </r>
       <r>   -1.4330    1.0000 </r>
       <r>   -1.3054    1.0000 </r>
       <r>   -0.9654    1.0000 </r>
       <r>   -0.6437    1.0000 </r>
       <r>   -0.3021    1.0000 </r>
       <r>   -0.1670    1.0000 </r>
       <r>    0.0579    1.0000 </r>
       <r>    0.3183    1.0000 </r>
       <r>    0.4880    1.0000 </r>
       <r>    1.0121    1.0000 </r>
       <r>    1.1509    1.0000 </r>
       <r>    8.7073    0.0000 </r>
       <r>   10.4520    0.0000 </r>
       <r>   10.7348    0.0000 </r>
       <r>   10.9638    0.0000 </r>
       <r>   11.6991    0.0000 </r>
      </set>
      <set comment="kpoint 7">
       <r>  -17.8823    1.0000 </r>
       <r>  -17.1427    1.0000 </r>
       <r>  -16.3863    1.0000 </r>
       <r>  -16.0158    1.0000 </r>
       <r>  -15.9600    1.0000 </r>
       <r>  -15.9500    1.0000 </r>
       <r>   -7.3302    1.0000 </r>
       <r>   -5.9299    1.0000 </r>
       <r>   -4.6334    1.0000 </r>
       <r>   -4.1189    1.0000 </r>
       <r>   -3.8571    1.0000 </r>
       <r>   -3.5702    1.0000 </r>
       <r>   -1.8927    1.0000 </r>
       <r>   -1.3904    1.0000 </r>
       <r>   -1.3602    1.0000 </r>
       <r>   -1.1093    1.0000 </r>
       <r>   -0.6941    1.0000 </r>
       <r>   -0.2005    1.0000 </r>
       <r>   -0.1046    1.0000 </r>
       <r>    0.0409    1.0000 </r>
       <r>    0.3866    1.0000 </r>
       <r>    0.4110    1.0000 </r>
       <r>    0.9059    1.0000 </r>
       <r>    1.2524    1.0000 </r>
       <r>    8.6702    0.0000 </r>
       <r>   10.5744    0.0000 </r>
       <r>   10.8872    0.0000 </r>
       <r>   11.0276    0.0000 </r>
       <r>   11.5534    0.0000 </r>
      </set>
      <set comment="kpoint 8">
       <r>  -17.6283    1.0000 </r>
       <r>  -17.1624    1.0000 </r>
       <r>  -16.6338    1.0000 </r>
       <r>  -16.0524    1.0000 </r>
       <r>  -16.0076    1.0000 </r>
       <r>  -15.9579    1.0000 </r>
       <r>   -6.9565    1.0000 </r>
       <r>   -5.9804    1.0000 </r>
       <r>   -4.8534    1.0000 </r>
       <r>   -4.0803    1.0000 </r>
       <r>   -3.7933    1.0000 </r>
       <r>   -3.4625    1.0000 </r>
       <r>   -1.8854    1.0000 </r>
       <r>   -1.7936    1.0000 </r>
       <r>   -1.2421    1.0000 </r>
       <r>   -1.0499    1.0000 </r>
       <r>   -0.5804    1.0000 </r>
       <r>   -0.4813    1.0000 </r>
       <r>   -0.1350    1.0000 </r>
[...]
       <r>    1.2157    1.0000 </r>
       <r>    9.3085    0.0000 </r>
       <r>    9.3085    0.0000 </r>
       <r>   10.4336    0.0000 </r>
       <r>   10.9941    0.0000 </r>
       <r>   10.9941    0.0000 </r>
      </set>
      <set comment="kpoint 12">
       <r>  -17.6425    1.0000 </r>
       <r>  -17.5019    1.0000 </r>
       <r>  -16.2495    1.0000 </r>
       <r>  -16.0280    1.0000 </r>
       <r>  -15.9743    1.0000 </r>
       <r>  -15.9409    1.0000 </r>
       <r>   -7.5169    1.0000 </r>
       <r>   -5.3543    1.0000 </r>
       <r>   -5.0127    1.0000 </r>
       <r>   -4.0964    1.0000 </r>
       <r>   -3.9725    1.0000 </r>
       <r>   -3.4571    1.0000 </r>
       <r>   -1.7490    1.0000 </r>
       <r>   -1.7305    1.0000 </r>
       <r>   -1.2092    1.0000 </r>
       <r>   -0.9365    1.0000 </r>
       <r>   -0.7531    1.0000 </r>
       <r>   -0.2542    1.0000 </r>
       <r>   -0.1573    1.0000 </r>
       <r>    0.0430    1.0000 </r>
       <r>    0.1864    1.0000 </r>
       <r>    0.7963    1.0000 </r>
       <r>    0.8304    1.0000 </r>
       <r>    1.1411    1.0000 </r>
       <r>    9.6763    0.0000 </r>
       <r>    9.8378    0.0000 </r>
       <r>   10.7237    0.0000 </r>
       <r>   11.0287    0.0000 </r>
       <r>   11.3861    0.0000 </r>
      </set>
      <set comment="kpoint 13">
       <r>  -17.5873    1.0000 </r>
       <r>  -17.1416    1.0000 </r>
       <r>  -16.7047    1.0000 </r>
       <r>  -16.0741    1.0000 </r>
       <r>  -15.9942    1.0000 </r>
       <r>  -15.9574    1.0000 </r>
       <r>   -6.8760    1.0000 </r>
       <r>   -5.9141    1.0000 </r>
       <r>   -5.0479    1.0000 </r>
       <r>   -3.9970    1.0000 </r>
       <r>   -3.7051    1.0000 </r>
       <r>   -3.6149    1.0000 </r>
       <r>   -1.9309    1.0000 </r>
       <r>   -1.9232    1.0000 </r>
       <r>   -1.1444    1.0000 </r>
       <r>   -0.8283    1.0000 </r>
       <r>   -0.7467    1.0000 </r>
       <r>   -0.2749    1.0000 </r>
       <r>    0.0228    1.0000 </r>
       <r>    0.1888    1.0000 </r>
       <r>    0.3970    1.0000 </r>
       <r>    0.4051    1.0000 </r>
       <r>    0.6989    1.0000 </r>
       <r>    1.1195    1.0000 </r>
       <r>   10.2273    0.0000 </r>
       <r>   10.7252    0.0000 </r>
       <r>   11.0146    0.0000 </r>
       <r>   11.2001    0.0000 </r>
       <r>   11.5388    0.0000 </r>
      </set>
      <set comment="kpoint 14">
       <r>  -17.5753    1.0000 </r>
       <r>  -17.1862    1.0000 </r>
       <r>  -16.6522    1.0000 </r>
       <r>  -16.0619    1.0000 </r>
       <r>  -16.0015    1.0000 </r>
       <r>  -15.9837    1.0000 </r>
       <r>   -6.8566    1.0000 </r>
       <r>   -5.8701    1.0000 </r>
       <r>   -5.1562    1.0000 </r>
       <r>   -3.8979    1.0000 </r>
       <r>   -3.7949    1.0000 </r>
       <r>   -3.6155    1.0000 </r>
       <r>   -1.9739    1.0000 </r>
       <r>   -1.7470    1.0000 </r>
       <r>   -1.2647    1.0000 </r>
       <r>   -0.9004    1.0000 </r>
       <r>   -0.6224    1.0000 </r>
       <r>   -0.4222    1.0000 </r>
       <r>    0.1492    1.0000 </r>
       <r>    0.2557    1.0000 </r>
       <r>    0.3285    1.0000 </r>
       <r>    0.5713    1.0000 </r>
       <r>    0.7165    1.0000 </r>
       <r>    0.9242    1.0000 </r>
       <r>   10.1771    0.0000 </r>
       <r>   10.6510    0.0000 </r>
       <r>   10.9633    0.0000 </r>
       <r>   11.3049    0.0000 </r>
       <r>   11.7227    0.0000 </r>
      </set>
     </set>
    </set>
   </array>
  </eigenvalues>
  <separator name="orbital magnetization" >
   <v name="MAGDIPOLOUT">      0.00000000      0.00000000      0.00000000</v>
  </separator>
  <dos>
   <i name="efermi">      1.78422646 </i>
   <total>
    <array>
     <dimension dim="1">gridpoints</dimension>
     <dimension dim="2">spin</dimension>
     <field>energy</field>
     <field>total</field>
     <field>integrated</field>
     <set>
      <set comment="spin 1">
       <r>   -19.6805     0.0000     0.0000 </r>
       <r>   -19.5699     0.0000     0.0000 </r>
       <r>   -19.4593     0.0000     0.0000 </r>
       <r>   -19.3486     0.0000     0.0000 </r>
       <r>   -19.2380     0.0000     0.0000 </r>
       <r>   -19.1274     0.0000     0.0000 </r>
       <r>   -19.0168     0.0000     0.0000 </r>
       <r>   -18.9061     0.0000     0.0000 </r>
       <r>   -18.7955     0.0000     0.0000 </r>
       <r>   -18.6849     0.0000     0.0000 </r>
       <r>   -18.5743     0.0000     0.0000 </r>
       <r>   -18.4636     0.0000     0.0000 </r>
       <r>   -18.3530     0.0015     0.0002 </r>
       <r>   -18.2424     0.0455     0.0052 </r>
       <r>   -18.1318     0.2561     0.0335 </r>
       <r>   -18.0211     0.9594     0.1397 </r>
       <r>   -17.9105     2.1807     0.3809 </r>
       <r>   -17.7999     2.2492     0.6297 </r>
       <r>   -17.6893     3.1575     0.9790 </r>
       <r>   -17.5786     6.7077     1.7211 </r>
       <r>   -17.4680     3.7411     2.1349 </r>
       <r>   -17.3574     0.7676     2.2198 </r>
       <r>   -17.2468     1.6695     2.4045 </r>
       <r>   -17.1361     7.3315     3.2156 </r>
       <r>   -17.0255     4.7008     3.7356 </r>
       <r>   -16.9149     0.5615     3.7977 </r>
       <r>   -16.8043     0.9817     3.9063 </r>
       <r>   -16.6936     2.7454     4.2100 </r>
       <r>   -16.5830     6.4579     4.9244 </r>
       <r>   -16.4724     3.7500     5.3393 </r>
       <r>   -16.3618     1.9951     5.5600 </r>
       <r>   -16.2511     2.2037     5.8038 </r>
       <r>   -16.1405     3.0301     6.1390 </r>
       <r>   -16.0299    16.0903     7.9190 </r>
       <r>   -15.9193    27.0527    10.9117 </r>
       <r>   -15.8086     9.2889    11.9393 </r>
       <r>   -15.6980     0.5447    11.9995 </r>
       <r>   -15.5874     0.0044    12.0000 </r>
       <r>   -15.4768     0.0000    12.0000 </r>
       <r>   -15.3661     0.0000    12.0000 </r>
       <r>   -15.2555     0.0000    12.0000 </r>
       <r>   -15.1449     0.0000    12.0000 </r>
       <r>   -15.0343     0.0000    12.0000 </r>
       <r>   -14.9236     0.0000    12.0000 </r>
       <r>   -14.8130     0.0000    12.0000 </r>
       <r>   -14.7024     0.0000    12.0000 </r>
       <r>   -14.5918     0.0000    12.0000 </r>
       <r>   -14.4811     0.0000    12.0000 </r>
       <r>   -14.3705     0.0000    12.0000 </r>
       <r>   -14.2599     0.0000    12.0000 </r>
       <r>   -14.1493     0.0000    12.0000 </r>
       <r>   -14.0386     0.0000    12.0000 </r>
       <r>   -13.9280     0.0000    12.0000 </r>
       <r>   -13.8174     0.0000    12.0000 </r>
       <r>   -13.7068     0.0000    12.0000 </r>
       <r>   -13.5961     0.0000    12.0000 </r>
       <r>   -13.4855     0.0000    12.0000 </r>
       <r>   -13.3749     0.0000    12.0000 </r>
       <r>   -13.2643     0.0000    12.0000 </r>
       <r>   -13.1536     0.0000    12.0000 </r>
       <r>   -13.0430     0.0000    12.0000 </r>
       <r>   -12.9324     0.0000    12.0000 </r>
       <r>   -12.8218     0.0000    12.0000 </r>
       <r>   -12.7111     0.0000    12.0000 </r>
       <r>   -12.6005     0.0000    12.0000 </r>
       <r>   -12.4899     0.0000    12.0000 </r>
       <r>   -12.3793     0.0000    12.0000 </r>
       <r>   -12.2686     0.0000    12.0000 </r>
       <r>   -12.1580     0.0000    12.0000 </r>
       <r>   -12.0474     0.0000    12.0000 </r>
       <r>   -11.9368     0.0000    12.0000 </r>
       <r>   -11.8261     0.0000    12.0000 </r>
       <r>   -11.7155     0.0000    12.0000 </r>
       <r>   -11.6049     0.0000    12.0000 </r>
       <r>   -11.4943     0.0000    12.0000 </r>
       <r>   -11.3836     0.0000    12.0000 </r>
       <r>   -11.2730     0.0000    12.0000 </r>
       <r>   -11.1624     0.0000    12.0000 </r>
       <r>   -11.0518     0.0000    12.0000 </r>
       <r>   -10.9411     0.0000    12.0000 </r>
       <r>   -10.8305     0.0000    12.0000 </r>
       <r>   -10.7199     0.0000    12.0000 </r>
       <r>   -10.6093     0.0000    12.0000 </r>
       <r>   -10.4986     0.0000    12.0000 </r>
       <r>   -10.3880     0.0000    12.0000 </r>
       <r>   -10.2774     0.0000    12.0000 </r>
       <r>   -10.1668     0.0000    12.0000 </r>
       <r>   -10.0561     0.0000    12.0000 </r>
       <r>    -9.9455     0.0000    12.0000 </r>
       <r>    -9.8349     0.0000    12.0000 </r>
       <r>    -9.7243     0.0000    12.0000 </r>
       <r>    -9.6136     0.0000    12.0000 </r>
       <r>    -9.5030     0.0000    12.0000 </r>
       <r>    -9.3924     0.0000    12.0000 </r>
       <r>    -9.2818     0.0000    12.0000 </r>
       <r>    -9.1711     0.0000    12.0000 </r>
       <r>    -9.0605     0.0000    12.0000 </r>
       <r>    -8.9499     0.0000    12.0000 </r>
       <r>    -8.8393     0.0000    12.0000 </r>
       <r>    -8.7286     0.0000    12.0000 </r>
       <r>    -8.6180     0.0000    12.0000 </r>
       <r>    -8.5074     0.0000    12.0000 </r>
       <r>    -8.3968     0.0000    12.0000 </r>
       <r>    -8.2861     0.0000    12.0000 </r>
       <r>    -8.1755     0.0001    12.0000 </r>
       <r>    -8.0649     0.0117    12.0013 </r>
       <r>    -7.9542     0.1110    12.0136 </r>
       <r>    -7.8436     0.1388    12.0289 </r>
       <r>    -7.7330     0.0939    12.0393 </r>
       <r>    -7.6224     0.4168    12.0854 </r>
       <r>    -7.5117     0.9748    12.1933 </r>
       <r>    -7.4011     1.2317    12.3295 </r>
       <r>    -7.2905     1.9612    12.5465 </r>
       <r>    -7.1799     1.0284    12.6603 </r>
       <r>    -7.0692     1.3921    12.8143 </r>
       <r>    -6.9586     4.6227    13.3257 </r>
       <r>    -6.8480     4.7485    13.8510 </r>
       <r>    -6.7374     1.5137    14.0184 </r>
       <r>    -6.6267     0.1966    14.0402 </r>
       <r>    -6.5161     0.7011    14.1177 </r>
       <r>    -6.4055     0.7926    14.2054 </r>
       <r>    -6.2949     0.1188    14.2185 </r>
       <r>    -6.1842     0.0259    14.2214 </r>
       <r>    -6.0736     0.5267    14.2797 </r>
       <r>    -5.9630     3.4246    14.6585 </r>
       <r>    -5.8524     6.9575    15.4282 </r>
       <r>    -5.7417     2.9860    15.7585 </r>
       <r>    -5.6311     0.2038    15.7811 </r>
       <r>    -5.5205     0.0176    15.7830 </r>
       <r>    -5.4099     0.3505    15.8218 </r>
       <r>    -5.2992     0.9958    15.9319 </r>
       <r>    -5.1886     0.9259    16.0344 </r>
       <r>    -5.0780     2.1924    16.2769 </r>
       <r>    -4.9674     3.8971    16.7080 </r>
       <r>    -4.8567     2.9759    17.0372 </r>
       <r>    -4.7461     1.8784    17.2450 </r>
       <r>    -4.6355     1.7998    17.4441 </r>
       <r>    -4.5249     1.9972    17.6651 </r>
       <r>    -4.4142     0.6221    17.7339 </r>
       <r>    -4.3036     0.7475    17.8166 </r>
       <r>    -4.1930     3.0831    18.1576 </r>
       <r>    -4.0824     8.8553    19.1373 </r>
       <r>    -3.9717     9.6812    20.2082 </r>
       <r>    -3.8611     6.6597    20.9450 </r>
       <r>    -3.7505     6.7704    21.6940 </r>
       <r>    -3.6399     5.6648    22.3206 </r>
       <r>    -3.5292     5.6953    22.9507 </r>
       <r>    -3.4186     5.0938    23.5142 </r>
       <r>    -3.3080     2.6702    23.8096 </r>
       <r>    -3.1974     1.4559    23.9706 </r>
       <r>    -3.0867     0.2596    23.9993 </r>
       <r>    -2.9761     0.0060    24.0000 </r>
       <r>    -2.8655     0.0000    24.0000 </r>
       <r>    -2.7549     0.0000    24.0000 </r>
       <r>    -2.6442     0.0000    24.0000 </r>
       <r>    -2.5336     0.0000    24.0000 </r>
       <r>    -2.4230     0.0000    24.0000 </r>
       <r>    -2.3124     0.0000    24.0000 </r>
       <r>    -2.2017     0.0015    24.0002 </r>
       <r>    -2.0911     0.1612    24.0180 </r>
       <r>    -1.9805     2.6153    24.3073 </r>
       <r>    -1.8699     7.9474    25.1865 </r>
       <r>    -1.7592     8.1351    26.0865 </r>
       <r>    -1.6486     6.8237    26.8413 </r>
       <r>    -1.5380     5.3487    27.4330 </r>
       <r>    -1.4274     6.3548    28.1360 </r>
       <r>    -1.3167     8.5006    29.0764 </r>
       <r>    -1.2061     5.9526    29.7349 </r>
       <r>    -1.0955     3.8918    30.1655 </r>
       <r>    -0.9849     4.8398    30.7009 </r>
       <r>    -0.8742     8.3885    31.6288 </r>
       <r>    -0.7636     6.9449    32.3971 </r>
       <r>    -0.6530     7.3728    33.2127 </r>
       <r>    -0.5424     6.3306    33.9131 </r>
       <r>    -0.4317     6.2556    34.6051 </r>
       <r>    -0.3211     5.9561    35.2640 </r>
       <r>    -0.2105     8.0413    36.1535 </r>
       <r>    -0.0999     9.8434    37.2425 </r>
       <r>     0.0108     8.1715    38.1465 </r>
       <r>     0.1214     8.9384    39.1353 </r>
       <r>     0.2320     9.4881    40.1849 </r>
       <r>     0.3426    10.6931    41.3678 </r>
       <r>     0.4533     8.7554    42.3364 </r>
       <r>     0.5639     5.7952    42.9775 </r>
       <r>     0.6745     6.2861    43.6729 </r>
       <r>     0.7851     5.2731    44.2562 </r>
       <r>     0.8958     6.6492    44.9918 </r>
       <r>     1.0064     6.7065    45.7337 </r>
       <r>     1.1170     7.8210    46.5989 </r>
       <r>     1.2276     8.3114    47.5183 </r>
       <r>     1.3383     3.7907    47.9377 </r>
       <r>     1.4489     0.5499    47.9985 </r>
       <r>     1.5595     0.0136    48.0000 </r>
       <r>     1.6701     0.0000    48.0000 </r>
       <r>     1.7808     0.0000    48.0000 </r>
       <r>     1.8914     0.0000    48.0000 </r>
       <r>     2.0020     0.0000    48.0000 </r>
       <r>     2.1126     0.0000    48.0000 </r>
       <r>     2.2233     0.0000    48.0000 </r>
       <r>     2.3339     0.0000    48.0000 </r>
       <r>     2.4445     0.0000    48.0000 </r>
       <r>     2.5551     0.0000    48.0000 </r>
       <r>     2.6658     0.0000    48.0000 </r>
       <r>     2.7764     0.0000    48.0000 </r>
       <r>     2.8870     0.0000    48.0000 </r>
       <r>     2.9976     0.0000    48.0000 </r>
       <r>     3.1083     0.0000    48.0000 </r>
       <r>     3.2189     0.0000    48.0000 </r>
       <r>     3.3295     0.0000    48.0000 </r>
       <r>     3.4401     0.0000    48.0000 </r>
       <r>     3.5508     0.0000    48.0000 </r>
       <r>     3.6614     0.0000    48.0000 </r>
       <r>     3.7720     0.0000    48.0000 </r>
       <r>     3.8826     0.0000    48.0000 </r>
       <r>     3.9933     0.0000    48.0000 </r>
       <r>     4.1039     0.0000    48.0000 </r>
       <r>     4.2145     0.0000    48.0000 </r>
       <r>     4.3251     0.0000    48.0000 </r>
       <r>     4.4358     0.0000    48.0000 </r>
       <r>     4.5464     0.0000    48.0000 </r>
       <r>     4.6570     0.0000    48.0000 </r>
       <r>     4.7677     0.0000    48.0000 </r>
       <r>     4.8783     0.0000    48.0000 </r>
       <r>     4.9889     0.0000    48.0000 </r>
       <r>     5.0995     0.0000    48.0000 </r>
       <r>     5.2102     0.0000    48.0000 </r>
       <r>     5.3208     0.0000    48.0000 </r>
       <r>     5.4314     0.0000    48.0000 </r>
       <r>     5.5420     0.0000    48.0000 </r>
       <r>     5.6527     0.0000    48.0000 </r>
       <r>     5.7633     0.0000    48.0000 </r>
       <r>     5.8739     0.0000    48.0000 </r>
       <r>     5.9845     0.0000    48.0000 </r>
       <r>     6.0952     0.0000    48.0000 </r>
       <r>     6.2058     0.0000    48.0000 </r>
       <r>     6.3164     0.0000    48.0000 </r>
       <r>     6.4270     0.0000    48.0000 </r>
       <r>     6.5377     0.0000    48.0000 </r>
       <r>     6.6483     0.0000    48.0000 </r>
       <r>     6.7589     0.0000    48.0000 </r>
       <r>     6.8695     0.0000    48.0000 </r>
       <r>     6.9802     0.0000    48.0000 </r>
       <r>     7.0908     0.0001    48.0000 </r>
       <r>     7.2014     0.0118    48.0013 </r>
       <r>     7.3120     0.1112    48.0136 </r>
       <r>     7.4227     0.1367    48.0287 </r>
       <r>     7.5333     0.0223    48.0312 </r>
       <r>     7.6439     0.0004    48.0313 </r>
       <r>     7.7545     0.0029    48.0316 </r>
       <r>     7.8652     0.0866    48.0412 </r>
       <r>     7.9758     0.3138    48.0759 </r>
       <r>     8.0864     0.1845    48.0963 </r>
       <r>     8.1970     0.4947    48.1510 </r>
       <r>     8.3077     0.9306    48.2540 </r>
       <r>     8.4183     0.2396    48.2805 </r>
       <r>     8.5289     0.0556    48.2866 </r>
       <r>     8.6395     0.8007    48.3752 </r>
       <r>     8.7502     1.8603    48.5810 </r>
       <r>     8.8608     0.6490    48.6528 </r>
       <r>     8.9714     0.0312    48.6562 </r>
       <r>     9.0820     0.0006    48.6563 </r>
       <r>     9.1927     0.0283    48.6594 </r>
       <r>     9.3033     0.2494    48.6870 </r>
       <r>     9.4139     0.5700    48.7501 </r>
       <r>     9.5245     1.0726    48.8687 </r>
       <r>     9.6352     1.4404    49.0281 </r>
       <r>     9.7458     3.0569    49.3662 </r>
       <r>     9.8564     2.9844    49.6964 </r>
       <r>     9.9670     1.7639    49.8915 </r>
       <r>    10.0777     0.5496    49.9523 </r>
       <r>    10.1883     1.0712    50.0708 </r>
       <r>    10.2989     1.3743    50.2229 </r>
       <r>    10.4095     2.0434    50.4489 </r>
       <r>    10.5202     3.1189    50.7939 </r>
       <r>    10.6308     5.0318    51.3506 </r>
       <r>    10.7414     9.0509    52.3518 </r>
       <r>    10.8520     6.2213    53.0401 </r>
       <r>    10.9627     6.5031    53.7595 </r>
       <r>    11.0733     7.3883    54.5768 </r>
       <r>    11.1839     3.0339    54.9124 </r>
       <r>    11.2945     3.6512    55.3164 </r>
       <r>    11.4052     5.6487    55.9412 </r>
       <r>    11.5158     6.3234    56.6408 </r>
       <r>    11.6264     5.3673    57.2345 </r>
       <r>    11.7370     3.3675    57.6071 </r>
       <r>    11.8477     2.1776    57.8480 </r>
       <r>    11.9583     0.7439    57.9302 </r>
       <r>    12.0689     0.4950    57.9850 </r>
       <r>    12.1795     0.1311    57.9995 </r>
       <r>    12.2902     0.0044    58.0000 </r>
       <r>    12.4008     0.0000    58.0000 </r>
       <r>    12.5114     0.0000    58.0000 </r>
       <r>    12.6220     0.0000    58.0000 </r>
       <r>    12.7327     0.0000    58.0000 </r>
       <r>    12.8433     0.0000    58.0000 </r>
       <r>    12.9539     0.0000    58.0000 </r>
       <r>    13.0645     0.0000    58.0000 </r>
       <r>    13.1752     0.0000    58.0000 </r>
       <r>    13.2858     0.0000    58.0000 </r>
       <r>    13.3964     0.0000    58.0000 </r>
       <r>    13.5070     0.0000    58.0000 </r>
      </set>
     </set>
    </array>
   </total>
  </dos>
 </calculation>
 <structure name="finalpos" >
  <crystal>
   <varray name="basis" >
    <v>       4.87342988       0.00000000       0.00000000 </v>
    <v>      -2.43671494       4.22051408       0.00000000 </v>
    <v>       0.00000000       0.00000000       5.37418982 </v>
   </varray>
   <i name="volume">    110.53837516 </i>
   <varray name="rec_basis" >
    <v>       0.20519429       0.11846898      -0.00000000 </v>
    <v>       0.00000000       0.23693796       0.00000000 </v>
    <v>       0.00000000      -0.00000000       0.18607456 </v>
   </varray>
  </crystal>
  <varray name="positions" >
   <v>       0.46456604       0.99976618       0.66672283 </v>
   <v>       0.00023382       0.46479986       0.33338950 </v>
   <v>       0.53520014       0.53543396       0.00005617 </v>
   <v>       0.13552937       0.72398721       0.55413947 </v>
   <v>       0.27601279       0.41154217       0.22080614 </v>
   <v>       0.58845783       0.86447063       0.88747281 </v>
   <v>       0.41146855       0.27602218       0.77909526 </v>
   <v>       0.86455363       0.58853145       0.11242859 </v>
   <v>       0.72397782       0.13544637       0.44576193 </v>
  </varray>
 </structure>
</modeling>
