<?xml version="1.0" encoding="ISO-8859-1"?>
<modeling>
 <generator>
  <i name="program" type="string">vasp </i>
  <i name="version" type="string">6.4.1  </i>
  <i name="subversion" type="string">05Apr23 (build Sep  6 2023 20:49:31) complex                          parallel </i>
  <i name="platform" type="string">LinuxNV </i>
  <i name="date" type="string">2023 10 19 </i>
  <i name="time" type="string">14:07:46 </i>
 </generator>
 <incar>
  <i type="string" name="PREC">Accurate</i>
  <i type="string" name="ALGO">Fast</i>
  <i name="EDIFF">      0.00000001</i>
  <i name="ENCUT">    500.00000000</i>
  <i type="int" name="ISMEAR">     0</i>
  <i name="SIGMA">      0.10000000</i>
  <i type="logical" name="LEPSILON"> T  </i>
 </incar>
 <primitive_cell>
  <structure name="primitive_cell" >
   <crystal>
    <varray name="basis" >
     <v>       4.87342988       0.00000000       0.00000000 </v>
     <v>      -2.43671494       4.22051408       0.00000000 </v>
     <v>       0.00000000       0.00000000       5.37418982 </v>
    </varray>
    <i name="volume">    110.53837516 </i>
    <varray name="rec_basis" >
     <v>       0.20519429       0.11846898      -0.00000000 </v>
     <v>       0.00000000       0.23693796       0.00000000 </v>
     <v>       0.00000000      -0.00000000       0.18607456 </v>
    </varray>
   </crystal>
   <varray name="positions" >
    <v>       0.46477200       0.99999999       0.66666667 </v>
    <v>       0.00008255       0.46467970       0.33338126 </v>
    <v>       0.53540285       0.53532029       0.99995207 </v>
    <v>       0.13548395       0.72414042       0.55412687 </v>
    <v>       0.27602872       0.41160111       0.22074259 </v>
    <v>       0.58842856       0.86459273       0.88769686 </v>
    <v>       0.41134352       0.27585959       0.77920644 </v>
    <v>       0.86442760       0.58839890       0.11259076 </v>
    <v>       0.72383582       0.13540728       0.44563648 </v>
   </varray>
  </structure>
  <varray name="primitive_index" >
   <v type="int" >        1 </v>
   <v type="int" >        2 </v>
   <v type="int" >        3 </v>
   <v type="int" >        4 </v>
   <v type="int" >        5 </v>
   <v type="int" >        6 </v>
   <v type="int" >        7 </v>
   <v type="int" >        8 </v>
   <v type="int" >        9 </v>
  </varray>
 </primitive_cell>
 <kpoints>
  <generation param="Gamma">
   <v type="int" name="divisions">       4        4        4 </v>
   <v name="usershift">      0.00000000       0.00000000       0.00000000 </v>
   <v name="genvec1">      0.25000000       0.00000000       0.00000000 </v>
   <v name="genvec2">      0.00000000       0.25000000       0.00000000 </v>
   <v name="genvec3">      0.00000000       0.00000000       0.25000000 </v>
   <v name="shift">      0.00000000       0.00000000       0.00000000 </v>
  </generation>
  <varray name="kpointlist" >
   <v>       0.00000000       0.00000000       0.00000000 </v>
   <v>       0.25000000       0.00000000       0.00000000 </v>
   <v>       0.00000000       0.25000000       0.00000000 </v>
   <v>       0.50000000       0.00000000       0.00000000 </v>
   <v>       0.00000000       0.50000000       0.00000000 </v>
   <v>       0.25000000       0.25000000       0.00000000 </v>
   <v>       0.50000000       0.25000000       0.00000000 </v>
   <v>       0.00000000       0.00000000       0.25000000 </v>
   <v>       0.25000000       0.00000000       0.25000000 </v>
   <v>       0.00000000       0.25000000       0.25000000 </v>
   <v>      -0.25000000       0.00000000       0.25000000 </v>
   <v>       0.00000000      -0.25000000       0.25000000 </v>
   <v>       0.50000000       0.00000000       0.25000000 </v>
   <v>       0.00000000       0.50000000       0.25000000 </v>
   <v>       0.25000000       0.25000000       0.25000000 </v>
   <v>       0.50000000       0.25000000       0.25000000 </v>
   <v>      -0.25000000      -0.25000000       0.25000000 </v>
   <v>       0.00000000       0.00000000       0.50000000 </v>
   <v>       0.25000000       0.00000000       0.50000000 </v>
   <v>       0.00000000       0.25000000       0.50000000 </v>
   <v>       0.50000000       0.00000000       0.50000000 </v>
   <v>       0.00000000       0.50000000       0.50000000 </v>
   <v>       0.25000000       0.25000000       0.50000000 </v>
   <v>       0.50000000       0.25000000       0.50000000 </v>
  </varray>
  <varray name="weights" >
   <v>       0.01562500 </v>
   <v>       0.06250000 </v>
   <v>       0.03125000 </v>
   <v>       0.03125000 </v>
   <v>       0.01562500 </v>
   <v>       0.06250000 </v>
   <v>       0.03125000 </v>
   <v>       0.03125000 </v>
   <v>       0.06250000 </v>
   <v>       0.03125000 </v>
   <v>       0.06250000 </v>
   <v>       0.03125000 </v>
   <v>       0.06250000 </v>
   <v>       0.03125000 </v>
   <v>       0.06250000 </v>
   <v>       0.06250000 </v>
   <v>       0.06250000 </v>
   <v>       0.01562500 </v>
   <v>       0.06250000 </v>
   <v>       0.03125000 </v>
   <v>       0.03125000 </v>
   <v>       0.01562500 </v>
   <v>       0.06250000 </v>
   <v>       0.03125000 </v>
  </varray>
 </kpoints>
 <parameters>
  <separator name="general" >
   <i type="string" name="SYSTEM">unknown system</i>
   <i type="logical" name="LCOMPAT"> F  </i>
  </separator>
  <separator name="electronic" >
   <i type="string" name="PREC">accura</i>
   <i name="ENMAX">    500.00000000</i>
   <i name="ENAUG">    605.39200000</i>
   <i name="EDIFF">      0.00000001</i>
   <i type="int" name="IALGO">    68</i>
   <i type="int" name="IWAVPR">    10</i>
   <i type="int" name="NBANDS">    29</i>
   <i type="int" name="NBANDSLOW">    -1</i>
   <i type="int" name="NBANDSHIGH">    -1</i>
   <i name="NELECT">     48.00000000</i>
   <i type="int" name="TURBO">     0</i>
   <i type="int" name="IRESTART">     0</i>
   <i type="int" name="NREBOOT">     0</i>
   <i type="int" name="NMIN">     0</i>
   <i name="EREF">      0.00000000</i>
   <separator name="electronic smearing" >
    <i type="int" name="ISMEAR">     0</i>
    <i name="SIGMA">      0.10000000</i>
    <i name="KSPACING">      0.50000000</i>
    <i type="logical" name="KGAMMA"> T  </i>
    <i type="logical" name="KBLOWUP"> T  </i>
   </separator>
   <separator name="electronic projectors" >
    <i type="logical" name="LREAL"> F  </i>
    <v name="ROPT">      0.00000000      0.00000000</v>
    <i type="int" name="LMAXPAW">  -100</i>
    <i type="int" name="LMAXMIX">     2</i>
    <i type="logical" name="NLSPLINE"> F  </i>
   </separator>
   <separator name="electronic startup" >
    <i type="int" name="ISTART">     0</i>
    <i type="int" name="ICHARG">     2</i>
    <i type="int" name="INIWAV">     1</i>
   </separator>
   <separator name="electronic spin" >
    <i type="int" name="ISPIN">     1</i>
    <i type="logical" name="LNONCOLLINEAR"> F  </i>
    <v name="MAGMOM">      1.00000000      1.00000000      1.00000000      1.00000000      1.00000000      1.00000000      1.00000000      1.00000000      1.00000000</v>
    <i name="NUPDOWN">     -1.00000000</i>
    <i type="logical" name="LSORBIT"> F  </i>
    <v name="SAXIS">      0.00000000      0.00000000      1.00000000</v>
    <i type="logical" name="LSPIRAL"> F  </i>
    <v name="QSPIRAL">      0.00000000      0.00000000      0.00000000</v>
    <i type="logical" name="LZEROZ"> F  </i>
   </separator>
   <separator name="electronic exchange-correlation" >
    <i type="logical" name="LASPH"> F  </i>
    <i type="logical" name="LMETAGGA"> F  </i>
   </separator>
   <separator name="electronic convergence" >
    <i type="int" name="NELM">    60</i>
    <i type="int" name="NELMDL">    -5</i>
    <i type="int" name="NELMIN">     2</i>
    <i name="ENINI">    500.00000000</i>
    <separator name="electronic convergence detail" >
     <i type="logical" name="LDIAG"> T  </i>
     <i type="logical" name="LSUBROT"> F  </i>
     <i name="WEIMIN">      0.00000000</i>
     <i name="EBREAK">      0.00000000</i>
     <i name="DEPER">      0.30000000</i>
     <i type="int" name="NRMM">     4</i>
     <i name="TIME">      0.40000000</i>
    </separator>
   </separator>
   <separator name="electronic mixer" >
    <i name="AMIX">      0.40000000</i>
    <i name="BMIX">      1.00000000</i>
    <i name="AMIN">      0.10000000</i>
    <i name="AMIX_MAG">      1.60000000</i>
    <i name="BMIX_MAG">      1.00000000</i>
    <separator name="electronic mixer details" >
     <i type="int" name="IMIX">     4</i>
     <i type="logical" name="MIXFIRST"> F  </i>
     <i type="int" name="MAXMIX">   -45</i>
     <i name="WC">    100.00000000</i>
     <i type="int" name="INIMIX">     1</i>
     <i type="int" name="MIXPRE">     1</i>
     <i type="int" name="MREMOVE">     5</i>
    </separator>
   </separator>
   <separator name="electronic dipolcorrection" >
    <i type="logical" name="LDIPOL"> F  </i>
    <i type="logical" name="LMONO"> F  </i>
    <i type="int" name="IDIPOL">     0</i>
    <i name="EPSILON">      1.00000000</i>
    <v name="DIPOL">   -100.00000000   -100.00000000   -100.00000000</v>
    <i name="EFIELD">      0.00000000</i>
   </separator>
  </separator>
  <separator name="grids" >
   <i type="int" name="NGX">    36</i>
   <i type="int" name="NGY">    36</i>
   <i type="int" name="NGZ">    40</i>
   <i type="int" name="NGXF">    72</i>
   <i type="int" name="NGYF">    72</i>
   <i type="int" name="NGZF">    80</i>
   <i type="logical" name="ADDGRID"> F  </i>
  </separator>
  <separator name="ionic" >
   <i type="int" name="NSW">     0</i>
   <i type="int" name="IBRION">    -1</i>
   <i type="int" name="MDALGO">     0</i>
   <i type="int" name="ISIF">     2</i>
   <i name="PSTRESS">      0.00000000</i>
   <i name="EDIFFG">      0.00000010</i>
   <i type="int" name="NFREE">     0</i>
   <i name="POTIM">      0.50000000</i>
   <i name="SMASS">     -3.00000000</i>
   <i name="SCALEE">      1.00000000</i>
  </separator>
  <separator name="ionic md" >
   <i name="TEBEG">      0.00010000</i>
   <i name="TEEND">      0.00010000</i>
   <i type="int" name="NBLOCK">     1</i>
   <i type="int" name="KBLOCK">     1</i>
   <i type="int" name="NPACO">   256</i>
   <i name="APACO">     10.00000000</i>
  </separator>
  <separator name="symmetry" >
   <i type="int" name="ISYM">     2</i>
   <i name="SYMPREC">      0.00001000</i>
  </separator>
  <separator name="dos" >
   <i type="int" name="LORBIT">     0</i>
   <v name="RWIGS">     -1.00000000     -1.00000000</v>
   <i type="int" name="NEDOS">   301</i>
   <i name="EMIN">     10.00000000</i>
   <i name="EMAX">    -10.00000000</i>
   <i name="EFERMI">      0.00000000</i>
  </separator>
  <separator name="writing" >
   <i type="int" name="NWRITE">     2</i>
   <i type="logical" name="LWAVE"> T  </i>
   <i type="logical" name="LDOWNSAMPLE"> F  </i>
   <i type="logical" name="LCHARG"> T  </i>
   <i type="logical" name="LPARD"> F  </i>
   <i type="logical" name="LVTOT"> F  </i>
   <i type="logical" name="LVHAR"> F  </i>
   <i type="logical" name="LELF"> F  </i>
   <i type="logical" name="LOPTICS"> F  </i>
   <v name="STM">      0.00000000      0.00000000      0.00000000      0.00000000      0.00000000      0.00000000      0.00000000</v>
  </separator>
  <separator name="performance" >
   <i type="int" name="NPAR">     1</i>
   <i type="int" name="NSIM">     4</i>
   <i type="int" name="NBLK">    -1</i>
   <i type="logical" name="LPLANE"> T  </i>
   <i type="logical" name="LSCALAPACK"> T  </i>
   <i type="logical" name="LSCAAWARE"> F  </i>
   <i type="logical" name="LSCALU"> F  </i>
   <i type="logical" name="LASYNC"> F  </i>
   <i type="logical" name="LORBITALREAL"> F  </i>
  </separator>
  <separator name="miscellaneous" >
   <i type="int" name="IDIOT">     3</i>
   <i type="int" name="PHON_NSTRUCT">    -1</i>
   <i type="logical" name="LMUSIC"> F  </i>
   <v name="POMASS">     28.08500000     16.00000000</v>
   <v name="DARWINR">      0.00000000      0.00000000</v>
   <v name="DARWINV">      1.00000000      1.00000000</v>
   <i type="logical" name="LCORR"> T  </i>
  </separator>
  <i type="logical" name="GGA_COMPAT"> T  </i>
  <i type="logical" name="LBERRY"> F  </i>
  <i type="int" name="ICORELEVEL">     0</i>
  <i type="logical" name="LDAU"> F  </i>
  <i type="int" name="I_CONSTRAINED_M">     0</i>
  <separator name="electronic exchange-correlation" >
   <i type="string" name="GGA">--</i>
   <i type="int" name="VOSKOWN">     0</i>
   <i type="logical" name="LHFCALC"> F  </i>
   <i type="string" name="PRECFOCK"></i>
   <i type="logical" name="LSYMGRAD"> F  </i>
   <i type="logical" name="LHFONE"> F  </i>
   <i type="logical" name="LRHFCALC"> F  </i>
   <i type="logical" name="LTHOMAS"> F  </i>
   <i type="logical" name="LMODELHF"> F  </i>
   <i type="logical" name="LFOCKACE"> F  </i>
   <i name="ENCUT4O">     -1.00000000</i>
   <i type="int" name="EXXOEP">     0</i>
   <i type="int" name="FOURORBIT">     0</i>
   <i name="AEXX">      0.00000000</i>
   <i name="HFALPHA">      0.00000000</i>
   <i name="MCALPHA">      0.00000000</i>
   <i name="ALDAX">      1.00000000</i>
   <i name="AGGAX">      1.00000000</i>
   <i name="ALDAC">      1.00000000</i>
   <i name="AGGAC">      1.00000000</i>
   <i type="int" name="NKREDX">     1</i>
   <i type="int" name="NKREDY">     1</i>
   <i type="int" name="NKREDZ">     1</i>
   <i type="logical" name="SHIFTRED"> F  </i>
   <i type="logical" name="ODDONLY"> F  </i>
   <i type="logical" name="EVENONLY"> F  </i>
   <i type="int" name="LMAXFOCK">     0</i>
   <i type="int" name="NMAXFOCKAE">     0</i>
   <i type="logical" name="LFOCKAEDFT"> F  </i>
   <i name="HFSCREEN">      0.00000000</i>
   <i name="HFSCREENC">      0.00000000</i>
   <i type="int" name="NBANDSGWLOW">     0</i>
  </separator>
  <separator name="vdW DFT" >
   <i type="logical" name="LUSE_VDW"> F  </i>
   <i type="int" name="IVDW_NL">     1</i>
   <i type="logical" name="LSPIN_VDW"> F  </i>
   <i name="Zab_VDW">     -0.84910000</i>
   <i name="PARAM1">      0.12340000</i>
   <i name="PARAM2">      1.00000000</i>
   <i name="PARAM3">      0.00000000</i>
  </separator>
  <separator name="model GW" >
   <i type="int" name="MODEL_GW">     0</i>
   <i name="MODEL_EPS0">      7.36922501</i>
   <i name="MODEL_ALPHA">      1.00000000</i>
  </separator>
  <separator name="linear response parameters" >
   <i type="logical" name="LEPSILON"> T  </i>
   <i type="logical" name="LRPA"> F  </i>
   <i type="logical" name="LNABLA"> F  </i>
   <i type="logical" name="LVEL"> F  </i>
   <i name="CSHIFT">      0.10000000</i>
   <i name="OMEGAMAX">     -1.00000000</i>
   <i name="DEG_THRESHOLD">      0.00200000</i>
   <i name="RTIME">     -0.10000000</i>
   <i name="WPLASMAI">      0.00000000</i>
   <v name="DFIELD">      0.00000000      0.00000000      0.00000000</v>
   <v name="WPLASMA">      0.00000000      0.00000000      0.00000000      0.00000000      0.00000000      0.00000000      0.00000000      0.00000000      0.00000000</v>
  </separator>
  <separator name="orbital magnetization" >
   <i type="logical" name="NUCIND"> F  </i>
   <v name="MAGPOS">      0.00000000      0.00000000      0.00000000</v>
   <i type="logical" name="LNICSALL"> T  </i>
   <i type="logical" name="ORBITALMAG"> F  </i>
   <i type="logical" name="LMAGBLOCH"> F  </i>
   <i type="logical" name="LCHIMAG"> F  </i>
   <i type="logical" name="LGAUGE"> T  </i>
   <i type="int" name="MAGATOM">     0</i>
   <v name="MAGDIPOL">      0.00000000      0.00000000      0.00000000</v>
   <v name="AVECCONST">      0.00000000      0.00000000      0.00000000</v>
  </separator>
  <separator name="response functions" >
   <i type="logical" name="LALL_IN_ONE"> F  </i>
   <i type="int" name="IALL_IN_ONE">    -1</i>
   <i type="int" name="NBANDS_WAVE">    -1</i>
   <i type="logical" name="LFINITE_TEMPERATURE"> F  </i>
   <i type="logical" name="LADDER"> F  </i>
   <i type="logical" name="LRPAFORCE"> F  </i>
   <i type="logical" name="LFXC"> F  </i>
   <i type="logical" name="LHARTREE"> T  </i>
   <i type="int" name="IBSE">     0</i>
   <v type="int" name="KPOINT">    -1     0     0     0</v>
   <i type="logical" name="LTCTC"> F  </i>
   <i type="logical" name="LTCTE"> F  </i>
   <i type="logical" name="LTETE"> F  </i>
   <i type="logical" name="LTRIPLET"> F  </i>
   <i type="logical" name="LFXCEPS"> F  </i>
   <i type="logical" name="LFXHEG"> F  </i>
   <i type="int" name="NATURALO">     2</i>
   <i type="logical" name="LHOLEGF"> F  </i>
   <i type="logical" name="L2ORDER"> F  </i>
   <i type="logical" name="LDMP1"> F  </i>
   <i type="logical" name="LMP2LT"> F  </i>
   <i type="logical" name="LSMP2LT"> F  </i>
   <i type="logical" name="LGWLF"> F  </i>
   <i name="ENCUTGW">     -1.60000002</i>
   <i name="ENCUTGWSOFT">     -1.60000002</i>
   <i name="ENCUTLF">     -1.00000000</i>
   <i type="logical" name="LESF_SPLINES"> F  </i>
   <i type="int" name="LMAXMP2">    -1</i>
   <i name="SCISSOR">      0.00000000</i>
   <i type="int" name="NOMEGA">     0</i>
   <i type="int" name="NOMEGAR">     0</i>
   <i type="int" name="NBANDSGW">    -1</i>
   <i type="int" name="NBANDSO">    -1</i>
   <i type="int" name="NBANDSV">    -1</i>
   <i type="int" name="NELMGW">     1</i>
   <i type="int" name="NELMHF">     1</i>
   <i type="int" name="DIM">     3</i>
   <i type="int" name="IESPILON">     4</i>
   <i type="int" name="ANTIRES">     0</i>
   <i name="OMEGAMAX">    -30.00000000</i>
   <i name="OMEGAMIN">    -30.00000000</i>
   <i name="OMEGATL">   -200.00000000</i>
   <i type="int" name="OMEGAGRID">     0</i>
   <i name="CSHIFT">     -0.10000000</i>
   <i type="logical" name="LSELFENERGY"> F  </i>
   <i type="logical" name="LSPECTRAL"> F  </i>
   <i type="logical" name="LSPECTRALGW"> F  </i>
   <i type="logical" name="LSINGLES"> F  </i>
   <i type="logical" name="LFERMIGW"> F  </i>
   <i type="logical" name="ODDONLYGW"> F  </i>
   <i type="logical" name="EVENONLYGW"> F  </i>
   <i type="int" name="NKREDLFX">     1</i>
   <i type="int" name="NKREDLFY">     1</i>
   <i type="int" name="NKREDLFZ">     1</i>
   <i type="int" name="MAXMEM">  2800</i>
   <i type="int" name="TELESCOPE">     0</i>
   <i type="int" name="NTAUPAR">    -1</i>
   <i type="int" name="NOMEGAPAR">    -1</i>
   <i name="DAMP_NEWTON">      0.80000001</i>
   <i name="LAMBDA">      1.00000000</i>
  </separator>
  <separator name="External order field" >
   <i name="OFIELD_KAPPA">      0.00000000</i>
   <v name="OFIELD_K">      0.00000000      0.00000000      0.00000000</v>
   <i name="OFIELD_Q6_NEAR">      0.00000000</i>
   <i name="OFIELD_Q6_FAR">      0.00000000</i>
   <i name="OFIELD_A">      0.00000000</i>
  </separator>
  <separator name="optional k-points parameters" >
   <i type="int" name="KPOINTS_OPT_MODE">     1</i>
   <i type="logical" name="LKPOINTS_OPT"> F  </i>
  </separator>
 </parameters>
 <atominfo>
  <atoms>       9 </atoms>
  <types>       2 </types>
  <array name="atoms" >
   <dimension dim="1">ion</dimension>
   <field type="string">element</field>
   <field type="int">atomtype</field>
   <set>
    <rc><c>Si</c><c>   1</c></rc>
    <rc><c>Si</c><c>   1</c></rc>
    <rc><c>Si</c><c>   1</c></rc>
    <rc><c>O </c><c>   2</c></rc>
    <rc><c>O </c><c>   2</c></rc>
    <rc><c>O </c><c>   2</c></rc>
    <rc><c>O </c><c>   2</c></rc>
    <rc><c>O </c><c>   2</c></rc>
    <rc><c>O </c><c>   2</c></rc>
   </set>
  </array>
  <array name="atomtypes" >
   <dimension dim="1">type</dimension>
   <field type="int">atomspertype</field>
   <field type="string">element</field>
   <field>mass</field>
   <field>valence</field>
   <field type="string">pseudopotential</field>
   <set>
    <rc><c>   3</c><c>Si</c><c>     28.08500000</c><c>      4.00000000</c><c>  PAW_PBE Si 05Jan2001                  </c></rc>
    <rc><c>   6</c><c>O </c><c>     16.00000000</c><c>      6.00000000</c><c>  PAW_PBE O 08Apr2002                   </c></rc>
   </set>
  </array>
 </atominfo>
 <structure name="initialpos" >
  <crystal>
   <varray name="basis" >
    <v>       4.87342988       0.00000000       0.00000000 </v>
    <v>      -2.43671494       4.22051408       0.00000000 </v>
    <v>       0.00000000       0.00000000       5.37418982 </v>
   </varray>
   <i name="volume">    110.53837516 </i>
   <varray name="rec_basis" >
    <v>       0.20519429       0.11846898      -0.00000000 </v>
    <v>       0.00000000       0.23693796       0.00000000 </v>
    <v>       0.00000000      -0.00000000       0.18607456 </v>
   </varray>
  </crystal>
  <varray name="positions" >
   <v>       0.46477200       0.99999999       0.66666667 </v>
   <v>       0.00008255       0.46467970       0.33338126 </v>
   <v>       0.53540285       0.53532029       0.99995207 </v>
   <v>       0.13548395       0.72414042       0.55412687 </v>
   <v>       0.27602872       0.41160111       0.22074259 </v>
   <v>       0.58842856       0.86459273       0.88769686 </v>
   <v>       0.41134352       0.27585959       0.77920644 </v>
   <v>       0.86442760       0.58839890       0.11259076 </v>
   <v>       0.72383582       0.13540728       0.44563648 </v>
  </varray>
 </structure>
 <calculation>
  <scstep>
   <time name="dav">    0.81    0.80</time>
   <time name="total">    0.84    0.82</time>
   <energy>
    <i name="alphaZ">     71.30271804 </i>
    <i name="ewald">  -1930.19432272 </i>
    <i name="hartreedc">   -909.39711865 </i>
    <i name="XCdc">    141.70968923 </i>
    <i name="pawpsdc">   2343.66826019 </i>
    <i name="pawaedc">  -2301.68043871 </i>
    <i name="eentropy">     -0.00771649 </i>
    <i name="bandstr">    -17.83682089 </i>
    <i name="atom">   2903.33737771 </i>
    <i name="e_fr_energy">    300.90162771 </i>
    <i name="e_wo_entrp">    300.90934420 </i>
    <i name="e_0_energy">    300.90548595 </i>
   </energy>
  </scstep>
  <scstep>
   <time name="dav">    0.82    0.82</time>
   <time name="total">    0.82    0.82</time>
   <energy>
    <i name="e_fr_energy">    -60.96169161 </i>
    <i name="e_wo_entrp">    -60.96169161 </i>
    <i name="e_0_energy">    -60.96169161 </i>
   </energy>
  </scstep>
  <scstep>
   <time name="dav">    0.77    0.77</time>
   <time name="total">    0.77    0.77</time>
   <energy>
    <i name="e_fr_energy">    -80.16483487 </i>
    <i name="e_wo_entrp">    -80.16483487 </i>
    <i name="e_0_energy">    -80.16483487 </i>
   </energy>
  </scstep>
  <scstep>
   <time name="dav">    0.77    0.77</time>
   <time name="total">    0.77    0.77</time>
   <energy>
    <i name="e_fr_energy">    -80.41815162 </i>
    <i name="e_wo_entrp">    -80.41815162 </i>
    <i name="e_0_energy">    -80.41815162 </i>
   </energy>
  </scstep>
  <scstep>
   <time name="dav">    0.75    0.76</time>
   <time name="total">    0.88    0.86</time>
   <energy>
    <i name="e_fr_energy">    -80.42328901 </i>
    <i name="e_wo_entrp">    -80.42328901 </i>
    <i name="e_0_energy">    -80.42328901 </i>
   </energy>
  </scstep>
  <scstep>
   <time name="diag">    0.08    0.08</time>
   <time name="diis">    0.86    0.86</time>
   <time name="orth">    0.01    0.01</time>
   <time name="total">    1.10    1.05</time>
   <energy>
    <i name="e_fr_energy">    -70.67426688 </i>
    <i name="e_wo_entrp">    -70.67426688 </i>
    <i name="e_0_energy">    -70.67426688 </i>
   </energy>
  </scstep>
  <scstep>
   <time name="diag">    0.08    0.08</time>
   <time name="diis">    0.95    0.95</time>
   <time name="orth">    0.01    0.01</time>
   <time name="total">    1.19    1.14</time>
   <energy>
    <i name="e_fr_energy">    -70.97635877 </i>
    <i name="e_wo_entrp">    -70.97635877 </i>
    <i name="e_0_energy">    -70.97635877 </i>
   </energy>
  </scstep>
  <scstep>
   <time name="diag">    0.08    0.08</time>
   <time name="diis">    0.95    0.95</time>
   <time name="orth">    0.01    0.01</time>
   <time name="total">    1.19    1.15</time>
   <energy>
    <i name="e_fr_energy">    -70.96832859 </i>
    <i name="e_wo_entrp">    -70.96832859 </i>
    <i name="e_0_energy">    -70.96832859 </i>
   </energy>
  </scstep>
  <scstep>
   <time name="diag">    0.08    0.08</time>
   <time name="diis">    0.97    0.97</time>
   <time name="orth">    0.01    0.01</time>
   <time name="total">    1.21    1.16</time>
   <energy>
    <i name="e_fr_energy">    -70.98742675 </i>
    <i name="e_wo_entrp">    -70.98742675 </i>
    <i name="e_0_energy">    -70.98742675 </i>
   </energy>
  </scstep>
  <scstep>
   <time name="diag">    0.08    0.08</time>
   <time name="diis">    0.97    0.97</time>
   <time name="orth">    0.01    0.01</time>
   <time name="total">    1.31    1.18</time>
   <energy>
    <i name="e_fr_energy">    -70.99273415 </i>
    <i name="e_wo_entrp">    -70.99273415 </i>
    <i name="e_0_energy">    -70.99273415 </i>
   </energy>
  </scstep>
  <scstep>
   <time name="diag">    0.08    0.08</time>
   <time name="diis">    0.97    0.97</time>
   <time name="orth">    0.01    0.01</time>
   <time name="total">    1.21    1.16</time>
   <energy>
    <i name="e_fr_energy">    -70.98887169 </i>
    <i name="e_wo_entrp">    -70.98887169 </i>
    <i name="e_0_energy">    -70.98887169 </i>
   </energy>
  </scstep>
  <scstep>
   <time name="diag">    0.08    0.08</time>
   <time name="diis">    0.97    0.97</time>
   <time name="orth">    0.01    0.01</time>
   <time name="total">    1.21    1.17</time>
   <energy>
    <i name="e_fr_energy">    -70.98948207 </i>
    <i name="e_wo_entrp">    -70.98948207 </i>
    <i name="e_0_energy">    -70.98948207 </i>
   </energy>
  </scstep>
  <scstep>
   <time name="diag">    0.08    0.08</time>
   <time name="diis">    1.02    1.03</time>
   <time name="orth">    0.01    0.01</time>
   <time name="total">    1.27    1.22</time>
   <energy>
    <i name="e_fr_energy">    -70.98924636 </i>
    <i name="e_wo_entrp">    -70.98924636 </i>
    <i name="e_0_energy">    -70.98924636 </i>
   </energy>
  </scstep>
  <scstep>
   <time name="diag">    0.08    0.08</time>
   <time name="diis">    0.98    0.98</time>
   <time name="orth">    0.01    0.01</time>
   <time name="total">    1.22    1.17</time>
   <energy>
    <i name="e_fr_energy">    -70.98920090 </i>
    <i name="e_wo_entrp">    -70.98920090 </i>
    <i name="e_0_energy">    -70.98920090 </i>
   </energy>
  </scstep>
  <scstep>
   <time name="diag">    0.08    0.08</time>
   <time name="diis">    1.07    1.07</time>
   <time name="orth">    0.01    0.01</time>
   <time name="total">    1.31    1.26</time>
   <energy>
    <i name="e_fr_energy">    -70.98919824 </i>
    <i name="e_wo_entrp">    -70.98919824 </i>
    <i name="e_0_energy">    -70.98919824 </i>
   </energy>
  </scstep>
  <scstep>
   <time name="diag">    0.08    0.08</time>
   <time name="diis">    0.97    0.98</time>
   <time name="orth">    0.01    0.01</time>
   <time name="total">    1.22    1.17</time>
   <energy>
    <i name="e_fr_energy">    -70.98919716 </i>
    <i name="e_wo_entrp">    -70.98919716 </i>
    <i name="e_0_energy">    -70.98919716 </i>
   </energy>
  </scstep>
  <scstep>
   <time name="diag">    0.08    0.08</time>
   <time name="diis">    0.98    0.99</time>
   <time name="orth">    0.01    0.01</time>
   <time name="total">    1.23    1.18</time>
   <energy>
    <i name="e_fr_energy">    -70.98919746 </i>
    <i name="e_wo_entrp">    -70.98919746 </i>
    <i name="e_0_energy">    -70.98919746 </i>
   </energy>
  </scstep>
  <scstep>
   <time name="diag">    0.08    0.08</time>
   <time name="diis">    0.98    0.98</time>
   <time name="orth">    0.01    0.01</time>
   <time name="total">    1.23    1.18</time>
   <energy>
    <i name="e_fr_energy">    -70.98919771 </i>
    <i name="e_wo_entrp">    -70.98919771 </i>
    <i name="e_0_energy">    -70.98919771 </i>
   </energy>
  </scstep>
  <scstep>
   <time name="diag">    0.08    0.08</time>
   <time name="diis">    0.97    0.97</time>
   <time name="orth">    0.01    0.01</time>
   <time name="total">    1.22    1.17</time>
   <energy>
    <i name="e_fr_energy">    -70.98919763 </i>
    <i name="e_wo_entrp">    -70.98919763 </i>
    <i name="e_0_energy">    -70.98919763 </i>
   </energy>
  </scstep>
  <scstep>
   <time name="diag">    0.08    0.08</time>
   <time name="diis">    0.98    0.98</time>
   <time name="orth">    0.01    0.01</time>
   <time name="total">    1.22    1.17</time>
   <energy>
    <i name="e_fr_energy">    -70.98919767 </i>
    <i name="e_wo_entrp">    -70.98919767 </i>
    <i name="e_0_energy">    -70.98919767 </i>
   </energy>
  </scstep>
  <scstep>
   <time name="diag">    0.08    0.08</time>
   <time name="diis">    0.68    0.68</time>
   <time name="orth">    0.01    0.01</time>
   <time name="total">    0.92    0.87</time>
   <energy>
    <i name="e_fr_energy">    -70.98919764 </i>
    <i name="e_wo_entrp">    -70.98919764 </i>
    <i name="e_0_energy">    -70.98919764 </i>
   </energy>
  </scstep>
  <scstep>
   <time name="diag">    0.08    0.08</time>
   <time name="diis">    0.65    0.65</time>
   <time name="orth">    0.01    0.01</time>
   <time name="total">    0.77    0.74</time>
   <energy>
    <i name="alphaZ">     71.30271804 </i>
    <i name="ewald">  -1930.19432272 </i>
    <i name="hartreedc">  -1040.55739474 </i>
    <i name="XCdc">    150.68547268 </i>
    <i name="pawpsdc">   8045.48214988 </i>
    <i name="pawaedc">  -8005.85994650 </i>
    <i name="eentropy">     -0.00000000 </i>
    <i name="bandstr">   -265.18525199 </i>
    <i name="atom">   2903.33737771 </i>
    <i name="e_fr_energy">    -70.98919764 </i>
    <i name="e_wo_entrp">    -70.98919764 </i>
    <i name="e_0_energy">    -70.98919764 </i>
   </energy>
  </scstep>
  <structure>
   <crystal>
    <varray name="basis" >
     <v>       4.87342988       0.00000000       0.00000000 </v>
     <v>      -2.43671494       4.22051408       0.00000000 </v>
     <v>       0.00000000       0.00000000       5.37418982 </v>
    </varray>
    <i name="volume">    110.53837516 </i>
    <varray name="rec_basis" >
     <v>       0.20519429       0.11846898      -0.00000000 </v>
     <v>       0.00000000       0.23693796       0.00000000 </v>
     <v>       0.00000000      -0.00000000       0.18607456 </v>
    </varray>
   </crystal>
   <varray name="positions" >
    <v>       0.46477200       0.99999999       0.66666667 </v>
    <v>       0.00008255       0.46467970       0.33338126 </v>
    <v>       0.53540285       0.53532029       0.99995207 </v>
    <v>       0.13548395       0.72414042       0.55412687 </v>
    <v>       0.27602872       0.41160111       0.22074259 </v>
    <v>       0.58842856       0.86459273       0.88769686 </v>
    <v>       0.41134352       0.27585959       0.77920644 </v>
    <v>       0.86442760       0.58839890       0.11259076 </v>
    <v>       0.72383582       0.13540728       0.44563648 </v>
   </varray>
  </structure>
  <varray name="forces" >
   <v>       0.00983659      -0.00000000       0.00000000 </v>
   <v>      -0.01691217       0.01597001      -0.00492578 </v>
   <v>      -0.01691217      -0.01597001       0.00492578 </v>
   <v>      -0.27087512      -0.00837031       0.15700659 </v>
   <v>       0.14053847      -0.24220800       0.15982583 </v>
   <v>       0.14233053       0.23513162       0.14333885 </v>
   <v>      -0.27087512       0.00837031      -0.15700659 </v>
   <v>       0.14053847       0.24220800      -0.15982583 </v>
   <v>       0.14233053      -0.23513162      -0.14333885 </v>
  </varray>
  <varray name="stress" >
   <v>      72.11300305       0.00000000       0.00000000 </v>
   <v>       0.00000000      71.80817912      -0.13019004 </v>
   <v>       0.00000000      -0.13018959      73.61129878 </v>
  </varray>
  <energy>
   <i name="e_fr_energy">    -70.98919764 </i>
   <i name="e_wo_entrp">    -70.98919764 </i>
   <i name="e_0_energy">    -70.98919764 </i>
  </energy>
  <scstep>
   <time name="total">   12.31    2.61</time>
   <energy>
    <i name="e_fr_energy">   -182.46978223 </i>
    <i name="e_wo_entrp">   -182.46978223 </i>
    <i name="e_0_energy">   -182.46978223 </i>
   </energy>
  </scstep>
  <scstep>
   <time name="total">   12.04    2.29</time>
   <energy>
    <i name="e_fr_energy">   -172.60693937 </i>
    <i name="e_wo_entrp">   -172.60693937 </i>
    <i name="e_0_energy">   -172.60693937 </i>
   </energy>
  </scstep>
  <scstep>
   <time name="total">   12.00    2.30</time>
   <energy>
    <i name="e_fr_energy">   -172.75506919 </i>
    <i name="e_wo_entrp">   -172.75506919 </i>
    <i name="e_0_energy">   -172.75506919 </i>
   </energy>
  </scstep>
  <scstep>
   <time name="total">    0.92    0.92</time>
   <energy>
    <i name="e_fr_energy">   -172.76258115 </i>
    <i name="e_wo_entrp">   -172.76258115 </i>
    <i name="e_0_energy">   -172.76258115 </i>
   </energy>
  </scstep>
  <scstep>
   <time name="total">    0.94    0.94</time>
   <energy>
    <i name="e_fr_energy">   -172.76275528 </i>
    <i name="e_wo_entrp">   -172.76275528 </i>
    <i name="e_0_energy">   -172.76275528 </i>
   </energy>
  </scstep>
  <scstep>
   <time name="total">    0.96    0.97</time>
   <energy>
    <i name="e_fr_energy">   -172.76277565 </i>
    <i name="e_wo_entrp">   -172.76277565 </i>
    <i name="e_0_energy">   -172.76277565 </i>
   </energy>
  </scstep>
  <scstep>
   <time name="total">    0.98    0.98</time>
   <energy>
    <i name="e_fr_energy">   -172.76276457 </i>
    <i name="e_wo_entrp">   -172.76276457 </i>
    <i name="e_0_energy">   -172.76276457 </i>
   </energy>
  </scstep>
  <scstep>
   <time name="total">    0.98    0.99</time>
   <energy>
    <i name="e_fr_energy">   -172.76276128 </i>
    <i name="e_wo_entrp">   -172.76276128 </i>
    <i name="e_0_energy">   -172.76276128 </i>
   </energy>
  </scstep>
  <scstep>
   <time name="total">    0.99    0.99</time>
   <energy>
    <i name="e_fr_energy">   -172.76276019 </i>
    <i name="e_wo_entrp">   -172.76276019 </i>
    <i name="e_0_energy">   -172.76276019 </i>
   </energy>
  </scstep>
  <scstep>
   <time name="total">    1.00    1.00</time>
   <energy>
    <i name="e_fr_energy">   -172.76275971 </i>
    <i name="e_wo_entrp">   -172.76275971 </i>
    <i name="e_0_energy">   -172.76275971 </i>
   </energy>
  </scstep>
  <scstep>
   <time name="total">   12.29    2.61</time>
   <energy>
    <i name="e_fr_energy">   -182.33913454 </i>
    <i name="e_wo_entrp">   -182.33913454 </i>
    <i name="e_0_energy">   -182.33913454 </i>
   </energy>
  </scstep>
  <scstep>
   <time name="total">   11.97    2.28</time>
   <energy>
    <i name="e_fr_energy">   -172.61048484 </i>
    <i name="e_wo_entrp">   -172.61048484 </i>
    <i name="e_0_energy">   -172.61048484 </i>
   </energy>
  </scstep>
  <scstep>
   <time name="total">   11.98    2.30</time>
   <energy>
    <i name="e_fr_energy">   -172.75494225 </i>
    <i name="e_wo_entrp">   -172.75494225 </i>
    <i name="e_0_energy">   -172.75494225 </i>
   </energy>
  </scstep>
  <scstep>
   <time name="total">    0.92    0.93</time>
   <energy>
    <i name="e_fr_energy">   -172.76217344 </i>
    <i name="e_wo_entrp">   -172.76217344 </i>
    <i name="e_0_energy">   -172.76217344 </i>
   </energy>
  </scstep>
  <scstep>
   <time name="total">    0.93    0.93</time>
   <energy>
    <i name="e_fr_energy">   -172.76234682 </i>
    <i name="e_wo_entrp">   -172.76234682 </i>
    <i name="e_0_energy">   -172.76234682 </i>
   </energy>
  </scstep>
  <scstep>
   <time name="total">    0.97    0.98</time>
   <energy>
    <i name="e_fr_energy">   -172.76235995 </i>
    <i name="e_wo_entrp">   -172.76235995 </i>
    <i name="e_0_energy">   -172.76235995 </i>
   </energy>
  </scstep>
  <scstep>
   <time name="total">    0.99    0.99</time>
   <energy>
    <i name="e_fr_energy">   -172.76236497 </i>
    <i name="e_wo_entrp">   -172.76236497 </i>
    <i name="e_0_energy">   -172.76236497 </i>
   </energy>
  </scstep>
  <scstep>
   <time name="total">    0.99    1.00</time>
   <energy>
    <i name="e_fr_energy">   -172.76236778 </i>
    <i name="e_wo_entrp">   -172.76236778 </i>
    <i name="e_0_energy">   -172.76236778 </i>
   </energy>
  </scstep>
  <scstep>
   <time name="total">    0.99    0.99</time>
   <energy>
    <i name="e_fr_energy">   -172.76236856 </i>
    <i name="e_wo_entrp">   -172.76236856 </i>
    <i name="e_0_energy">   -172.76236856 </i>
   </energy>
  </scstep>
  <scstep>
   <time name="total">    1.03    1.04</time>
   <energy>
    <i name="e_fr_energy">   -172.76236683 </i>
    <i name="e_wo_entrp">   -172.76236683 </i>
    <i name="e_0_energy">   -172.76236683 </i>
   </energy>
  </scstep>
  <scstep>
   <time name="total">   12.30    2.61</time>
   <energy>
    <i name="e_fr_energy">   -182.16922827 </i>
    <i name="e_wo_entrp">   -182.16922827 </i>
    <i name="e_0_energy">   -182.16922827 </i>
   </energy>
  </scstep>
  <scstep>
   <time name="total">   12.02    2.28</time>
   <energy>
    <i name="e_fr_energy">   -172.56362501 </i>
    <i name="e_wo_entrp">   -172.56362501 </i>
    <i name="e_0_energy">   -172.56362501 </i>
   </energy>
  </scstep>
  <scstep>
   <time name="total">   12.11    2.31</time>
   <energy>
    <i name="e_fr_energy">   -172.71165026 </i>
    <i name="e_wo_entrp">   -172.71165026 </i>
    <i name="e_0_energy">   -172.71165026 </i>
   </energy>
  </scstep>
  <scstep>
   <time name="total">    0.92    0.92</time>
   <energy>
    <i name="e_fr_energy">   -172.71763121 </i>
    <i name="e_wo_entrp">   -172.71763121 </i>
    <i name="e_0_energy">   -172.71763121 </i>
   </energy>
  </scstep>
  <scstep>
   <time name="total">    0.92    0.92</time>
   <energy>
    <i name="e_fr_energy">   -172.71756431 </i>
    <i name="e_wo_entrp">   -172.71756431 </i>
    <i name="e_0_energy">   -172.71756431 </i>
   </energy>
  </scstep>
  <scstep>
   <time name="total">    0.95    0.95</time>
   <energy>
    <i name="e_fr_energy">   -172.71752175 </i>
    <i name="e_wo_entrp">   -172.71752175 </i>
    <i name="e_0_energy">   -172.71752175 </i>
   </energy>
  </scstep>
  <scstep>
   <time name="total">    0.97    0.98</time>
   <energy>
    <i name="e_fr_energy">   -172.71751610 </i>
    <i name="e_wo_entrp">   -172.71751610 </i>
    <i name="e_0_energy">   -172.71751610 </i>
   </energy>
  </scstep>
  <scstep>
   <time name="total">    0.98    0.98</time>
   <energy>
    <i name="e_fr_energy">   -172.71750177 </i>
    <i name="e_wo_entrp">   -172.71750177 </i>
    <i name="e_0_energy">   -172.71750177 </i>
   </energy>
  </scstep>
  <scstep>
   <time name="total">    0.99    0.99</time>
   <energy>
    <i name="e_fr_energy">   -172.71750667 </i>
    <i name="e_wo_entrp">   -172.71750667 </i>
    <i name="e_0_energy">   -172.71750667 </i>
   </energy>
  </scstep>
  <scstep>
   <time name="total">    0.99    0.99</time>
   <energy>
    <i name="e_fr_energy">   -172.71750630 </i>
    <i name="e_wo_entrp">   -172.71750630 </i>
    <i name="e_0_energy">   -172.71750630 </i>
   </energy>
  </scstep>
  <scstep>
   <time name="total">    1.77    1.24</time>
   <energy>
    <i name="e_fr_energy">     -0.48317784 </i>
    <i name="e_wo_entrp">     -0.48317784 </i>
    <i name="e_0_energy">     -0.48317784 </i>
   </energy>
  </scstep>
  <scstep>
   <time name="total">    1.69    1.23</time>
   <energy>
    <i name="e_fr_energy">     -0.48537710 </i>
    <i name="e_wo_entrp">     -0.48537710 </i>
    <i name="e_0_energy">     -0.48537710 </i>
   </energy>
  </scstep>
  <scstep>
   <time name="total">    1.70    1.23</time>
   <energy>
    <i name="e_fr_energy">     -0.48556512 </i>
    <i name="e_wo_entrp">     -0.48556512 </i>
    <i name="e_0_energy">     -0.48556512 </i>
   </energy>
  </scstep>
  <scstep>
   <time name="total">    1.71    1.24</time>
   <energy>
    <i name="e_fr_energy">     -0.48557370 </i>
    <i name="e_wo_entrp">     -0.48557370 </i>
    <i name="e_0_energy">     -0.48557370 </i>
   </energy>
  </scstep>
  <scstep>
   <time name="total">    1.70    1.23</time>
   <energy>
    <i name="e_fr_energy">     -0.48557400 </i>
    <i name="e_wo_entrp">     -0.48557400 </i>
    <i name="e_0_energy">     -0.48557400 </i>
   </energy>
  </scstep>
  <scstep>
   <time name="total">    1.66    1.19</time>
   <energy>
    <i name="e_fr_energy">     -0.48557402 </i>
    <i name="e_wo_entrp">     -0.48557402 </i>
    <i name="e_0_energy">     -0.48557402 </i>
   </energy>
  </scstep>
  <scstep>
   <time name="total">    1.62    1.15</time>
   <energy>
    <i name="e_fr_energy">     -0.48557402 </i>
    <i name="e_wo_entrp">     -0.48557402 </i>
    <i name="e_0_energy">     -0.48557402 </i>
   </energy>
  </scstep>
  <scstep>
   <time name="total">    1.61    1.14</time>
   <energy>
    <i name="e_fr_energy">     -0.48557402 </i>
    <i name="e_wo_entrp">     -0.48557402 </i>
    <i name="e_0_energy">     -0.48557402 </i>
   </energy>
  </scstep>
  <scstep>
   <time name="total">    1.60    1.13</time>
   <energy>
    <i name="e_fr_energy">     -0.48557402 </i>
    <i name="e_wo_entrp">     -0.48557402 </i>
    <i name="e_0_energy">     -0.48557402 </i>
   </energy>
  </scstep>
  <scstep>
   <time name="total">    1.71    1.23</time>
   <energy>
    <i name="e_fr_energy">     -0.48320550 </i>
    <i name="e_wo_entrp">     -0.48320550 </i>
    <i name="e_0_energy">     -0.48320550 </i>
   </energy>
  </scstep>
  <scstep>
   <time name="total">    1.69    1.23</time>
   <energy>
    <i name="e_fr_energy">     -0.48536711 </i>
    <i name="e_wo_entrp">     -0.48536711 </i>
    <i name="e_0_energy">     -0.48536711 </i>
   </energy>
  </scstep>
  <scstep>
   <time name="total">    1.70    1.24</time>
   <energy>
    <i name="e_fr_energy">     -0.48555485 </i>
    <i name="e_wo_entrp">     -0.48555485 </i>
    <i name="e_0_energy">     -0.48555485 </i>
   </energy>
  </scstep>
  <scstep>
   <time name="total">    1.71    1.24</time>
   <energy>
    <i name="e_fr_energy">     -0.48556346 </i>
    <i name="e_wo_entrp">     -0.48556346 </i>
    <i name="e_0_energy">     -0.48556346 </i>
   </energy>
  </scstep>
  <scstep>
   <time name="total">    1.72    1.25</time>
   <energy>
    <i name="e_fr_energy">     -0.48556376 </i>
    <i name="e_wo_entrp">     -0.48556376 </i>
    <i name="e_0_energy">     -0.48556376 </i>
   </energy>
  </scstep>
  <scstep>
   <time name="total">    1.68    1.21</time>
   <energy>
    <i name="e_fr_energy">     -0.48556378 </i>
    <i name="e_wo_entrp">     -0.48556378 </i>
    <i name="e_0_energy">     -0.48556378 </i>
   </energy>
  </scstep>
  <scstep>
   <time name="total">    1.64    1.17</time>
   <energy>
    <i name="e_fr_energy">     -0.48556378 </i>
    <i name="e_wo_entrp">     -0.48556378 </i>
    <i name="e_0_energy">     -0.48556378 </i>
   </energy>
  </scstep>
  <scstep>
   <time name="total">    1.62    1.15</time>
   <energy>
    <i name="e_fr_energy">     -0.48556378 </i>
    <i name="e_wo_entrp">     -0.48556378 </i>
    <i name="e_0_energy">     -0.48556378 </i>
   </energy>
  </scstep>
  <scstep>
   <time name="total">    1.76    1.17</time>
   <energy>
    <i name="e_fr_energy">     -0.48556378 </i>
    <i name="e_wo_entrp">     -0.48556378 </i>
    <i name="e_0_energy">     -0.48556378 </i>
   </energy>
  </scstep>
  <scstep>
   <time name="total">    1.70    1.23</time>
   <energy>
    <i name="e_fr_energy">     -0.48761077 </i>
    <i name="e_wo_entrp">     -0.48761077 </i>
    <i name="e_0_energy">     -0.48761077 </i>
   </energy>
  </scstep>
  <scstep>
   <time name="total">    1.68    1.21</time>
   <energy>
    <i name="e_fr_energy">     -0.48965641 </i>
    <i name="e_wo_entrp">     -0.48965641 </i>
    <i name="e_0_energy">     -0.48965641 </i>
   </energy>
  </scstep>
  <scstep>
   <time name="total">    1.70    1.23</time>
   <energy>
    <i name="e_fr_energy">     -0.48984747 </i>
    <i name="e_wo_entrp">     -0.48984747 </i>
    <i name="e_0_energy">     -0.48984747 </i>
   </energy>
  </scstep>
  <scstep>
   <time name="total">    1.72    1.24</time>
   <energy>
    <i name="e_fr_energy">     -0.48985639 </i>
    <i name="e_wo_entrp">     -0.48985639 </i>
    <i name="e_0_energy">     -0.48985639 </i>
   </energy>
  </scstep>
  <scstep>
   <time name="total">    1.71    1.24</time>
   <energy>
    <i name="e_fr_energy">     -0.48985670 </i>
    <i name="e_wo_entrp">     -0.48985670 </i>
    <i name="e_0_energy">     -0.48985670 </i>
   </energy>
  </scstep>
  <scstep>
   <time name="total">    1.66    1.19</time>
   <energy>
    <i name="e_fr_energy">     -0.48985672 </i>
    <i name="e_wo_entrp">     -0.48985672 </i>
    <i name="e_0_energy">     -0.48985672 </i>
   </energy>
  </scstep>
  <scstep>
   <time name="total">    1.61    1.14</time>
   <energy>
    <i name="e_fr_energy">     -0.48985672 </i>
    <i name="e_wo_entrp">     -0.48985672 </i>
    <i name="e_0_energy">     -0.48985672 </i>
   </energy>
  </scstep>
  <scstep>
   <time name="total">    1.59    1.12</time>
   <energy>
    <i name="e_fr_energy">     -0.48985672 </i>
    <i name="e_wo_entrp">     -0.48985672 </i>
    <i name="e_0_energy">     -0.48985672 </i>
   </energy>
  </scstep>
  <scstep>
   <time name="total">    1.59    1.12</time>
   <energy>
    <i name="e_fr_energy">     -0.48985672 </i>
    <i name="e_wo_entrp">     -0.48985672 </i>
    <i name="e_0_energy">     -0.48985672 </i>
   </energy>
  </scstep>
  <scstep>
   <time name="total">    1.58    1.11</time>
   <energy>
    <i name="e_fr_energy">     -0.48985672 </i>
    <i name="e_wo_entrp">     -0.48985672 </i>
    <i name="e_0_energy">     -0.48985672 </i>
   </energy>
  </scstep>
  <varray name="dielectric_ipa" >
   <v>       2.58977949       0.00000000       0.00000000 </v>
   <v>       0.00000000       2.58974219       0.00033747 </v>
   <v>       0.00000000       0.00033698       2.60380695 </v>
  </varray>
  <kpoints>
   <generation param="Gamma">
    <v type="int" name="divisions">       4        4        4 </v>
    <v name="usershift">      0.00000000       0.00000000       0.00000000 </v>
    <v name="genvec1">      0.25000000       0.00000000       0.00000000 </v>
    <v name="genvec2">      0.00000000       0.25000000       0.00000000 </v>
    <v name="genvec3">      0.00000000       0.00000000       0.25000000 </v>
    <v name="shift">      0.00000000       0.00000000       0.00000000 </v>
   </generation>
   <varray name="kpointlist" >
    <v>       0.00000000       0.00000000       0.00000000 </v>
    <v>       0.25000000       0.00000000       0.00000000 </v>
    <v>       0.00000000       0.25000000       0.00000000 </v>
    <v>       0.50000000       0.00000000       0.00000000 </v>
    <v>       0.00000000       0.50000000       0.00000000 </v>
    <v>       0.25000000       0.25000000       0.00000000 </v>
    <v>       0.50000000       0.25000000       0.00000000 </v>
    <v>       0.00000000       0.00000000       0.25000000 </v>
    <v>       0.25000000       0.00000000       0.25000000 </v>
    <v>       0.00000000       0.25000000       0.25000000 </v>
    <v>      -0.25000000       0.00000000       0.25000000 </v>
    <v>       0.00000000      -0.25000000       0.25000000 </v>
    <v>       0.50000000       0.00000000       0.25000000 </v>
    <v>       0.00000000       0.50000000       0.25000000 </v>
    <v>       0.25000000       0.25000000       0.25000000 </v>
    <v>       0.50000000       0.25000000       0.25000000 </v>
    <v>      -0.25000000      -0.25000000       0.25000000 </v>
    <v>       0.00000000       0.00000000       0.50000000 </v>
    <v>       0.25000000       0.00000000       0.50000000 </v>
    <v>       0.00000000       0.25000000       0.50000000 </v>
    <v>       0.50000000       0.00000000       0.50000000 </v>
    <v>       0.00000000       0.50000000       0.50000000 </v>
    <v>       0.25000000       0.25000000       0.50000000 </v>
    <v>       0.50000000       0.25000000       0.50000000 </v>
   </varray>
   <varray name="weights" >
    <v>       0.01562500 </v>
    <v>       0.06250000 </v>
    <v>       0.03125000 </v>
    <v>       0.03125000 </v>
    <v>       0.01562500 </v>
    <v>       0.06250000 </v>
    <v>       0.03125000 </v>
    <v>       0.03125000 </v>
    <v>       0.06250000 </v>
    <v>       0.03125000 </v>
    <v>       0.06250000 </v>
    <v>       0.03125000 </v>
    <v>       0.06250000 </v>
    <v>       0.03125000 </v>
    <v>       0.06250000 </v>
    <v>       0.06250000 </v>
    <v>       0.06250000 </v>
    <v>       0.01562500 </v>
    <v>       0.06250000 </v>
    <v>       0.03125000 </v>
    <v>       0.03125000 </v>
    <v>       0.01562500 </v>
    <v>       0.06250000 </v>
    <v>       0.03125000 </v>
   </varray>
  </kpoints>
  <scstep>
   <time name="total">    1.70    1.23</time>
   <energy>
    <i name="e_fr_energy">     -0.48317784 </i>
    <i name="e_wo_entrp">     -0.48317784 </i>
    <i name="e_0_energy">     -0.48317784 </i>
   </energy>
  </scstep>
  <scstep>
   <time name="total">    1.76    1.27</time>
   <energy>
    <i name="e_fr_energy">     -0.48537710 </i>
    <i name="e_wo_entrp">     -0.48537710 </i>
    <i name="e_0_energy">     -0.48537710 </i>
   </energy>
  </scstep>
  <scstep>
   <time name="total">    1.77    1.28</time>
   <energy>
    <i name="e_fr_energy">     -0.46493491 </i>
    <i name="e_wo_entrp">     -0.46493491 </i>
    <i name="e_0_energy">     -0.46493491 </i>
   </energy>
  </scstep>
  <scstep>
   <time name="total">    1.77    1.29</time>
   <energy>
    <i name="e_fr_energy">     -0.47601984 </i>
    <i name="e_wo_entrp">     -0.47601984 </i>
    <i name="e_0_energy">     -0.47601984 </i>
   </energy>
  </scstep>
  <scstep>
   <time name="total">    1.76    1.28</time>
   <energy>
    <i name="e_fr_energy">     -0.49377931 </i>
    <i name="e_wo_entrp">     -0.49377931 </i>
    <i name="e_0_energy">     -0.49377931 </i>
   </energy>
  </scstep>
  <scstep>
   <time name="total">    1.76    1.27</time>
   <energy>
    <i name="e_fr_energy">     -0.49668427 </i>
    <i name="e_wo_entrp">     -0.49668427 </i>
    <i name="e_0_energy">     -0.49668427 </i>
   </energy>
  </scstep>
  <scstep>
   <time name="total">    1.78    1.29</time>
   <energy>
    <i name="e_fr_energy">     -0.49693494 </i>
    <i name="e_wo_entrp">     -0.49693494 </i>
    <i name="e_0_energy">     -0.49693494 </i>
   </energy>
  </scstep>
  <scstep>
   <time name="total">    1.77    1.28</time>
   <energy>
    <i name="e_fr_energy">     -0.49716606 </i>
    <i name="e_wo_entrp">     -0.49716606 </i>
    <i name="e_0_energy">     -0.49716606 </i>
   </energy>
  </scstep>
  <scstep>
   <time name="total">    1.77    1.29</time>
   <energy>
    <i name="e_fr_energy">     -0.49722655 </i>
    <i name="e_wo_entrp">     -0.49722655 </i>
    <i name="e_0_energy">     -0.49722655 </i>
   </energy>
  </scstep>
  <scstep>
   <time name="total">    1.79    1.30</time>
   <energy>
    <i name="e_fr_energy">     -0.49722296 </i>
    <i name="e_wo_entrp">     -0.49722296 </i>
    <i name="e_0_energy">     -0.49722296 </i>
   </energy>
  </scstep>
  <scstep>
   <time name="total">    1.79    1.31</time>
   <energy>
    <i name="e_fr_energy">     -0.49722385 </i>
    <i name="e_wo_entrp">     -0.49722385 </i>
    <i name="e_0_energy">     -0.49722385 </i>
   </energy>
  </scstep>
  <scstep>
   <time name="total">    1.75    1.27</time>
   <energy>
    <i name="e_fr_energy">     -0.49722378 </i>
    <i name="e_wo_entrp">     -0.49722378 </i>
    <i name="e_0_energy">     -0.49722378 </i>
   </energy>
  </scstep>
  <scstep>
   <time name="total">    1.76    1.27</time>
   <energy>
    <i name="e_fr_energy">     -0.49722379 </i>
    <i name="e_wo_entrp">     -0.49722379 </i>
    <i name="e_0_energy">     -0.49722379 </i>
   </energy>
  </scstep>
  <scstep>
   <time name="total">    1.78    1.30</time>
   <energy>
    <i name="e_fr_energy">     -0.49722379 </i>
    <i name="e_wo_entrp">     -0.49722379 </i>
    <i name="e_0_energy">     -0.49722379 </i>
   </energy>
  </scstep>
  <kpoints>
   <generation param="Gamma">
    <v type="int" name="divisions">       4        4        4 </v>
    <v name="usershift">      0.00000000       0.00000000       0.00000000 </v>
    <v name="genvec1">      0.25000000       0.00000000       0.00000000 </v>
    <v name="genvec2">      0.00000000       0.25000000       0.00000000 </v>
    <v name="genvec3">      0.00000000       0.00000000       0.25000000 </v>
    <v name="shift">      0.00000000       0.00000000       0.00000000 </v>
   </generation>
   <varray name="kpointlist" >
    <v>       0.00000000       0.00000000       0.00000000 </v>
    <v>       0.25000000       0.00000000       0.00000000 </v>
    <v>       0.00000000       0.25000000       0.00000000 </v>
    <v>      -0.25000000       0.25000000       0.00000000 </v>
    <v>       0.50000000       0.00000000       0.00000000 </v>
    <v>       0.00000000       0.50000000       0.00000000 </v>
    <v>       0.50000000       0.50000000       0.00000000 </v>
    <v>       0.25000000       0.25000000       0.00000000 </v>
    <v>      -0.25000000       0.50000000       0.00000000 </v>
    <v>       0.50000000       0.25000000       0.00000000 </v>
    <v>       0.00000000       0.00000000       0.25000000 </v>
    <v>       0.25000000       0.00000000       0.25000000 </v>
    <v>       0.00000000       0.25000000       0.25000000 </v>
    <v>      -0.25000000       0.25000000       0.25000000 </v>
    <v>      -0.25000000       0.00000000       0.25000000 </v>
    <v>       0.00000000      -0.25000000       0.25000000 </v>
    <v>       0.25000000      -0.25000000       0.25000000 </v>
    <v>       0.50000000       0.00000000       0.25000000 </v>
    <v>       0.00000000       0.50000000       0.25000000 </v>
    <v>       0.50000000       0.50000000       0.25000000 </v>
    <v>       0.25000000       0.25000000       0.25000000 </v>
    <v>      -0.25000000       0.50000000       0.25000000 </v>
    <v>       0.50000000       0.25000000       0.25000000 </v>
    <v>      -0.25000000      -0.25000000       0.25000000 </v>
    <v>       0.25000000       0.50000000       0.25000000 </v>
    <v>       0.50000000      -0.25000000       0.25000000 </v>
    <v>       0.00000000       0.00000000       0.50000000 </v>
    <v>       0.25000000       0.00000000       0.50000000 </v>
    <v>       0.00000000       0.25000000       0.50000000 </v>
    <v>      -0.25000000       0.25000000       0.50000000 </v>
    <v>       0.50000000       0.00000000       0.50000000 </v>
    <v>       0.00000000       0.50000000       0.50000000 </v>
    <v>       0.50000000       0.50000000       0.50000000 </v>
    <v>       0.25000000       0.25000000       0.50000000 </v>
    <v>      -0.25000000       0.50000000       0.50000000 </v>
    <v>       0.50000000       0.25000000       0.50000000 </v>
   </varray>
   <varray name="weights" >
    <v>       0.01562500 </v>
    <v>       0.03125000 </v>
    <v>       0.03125000 </v>
    <v>       0.03125000 </v>
    <v>       0.01562500 </v>
    <v>       0.01562500 </v>
    <v>       0.01562500 </v>
    <v>       0.03125000 </v>
    <v>       0.03125000 </v>
    <v>       0.03125000 </v>
    <v>       0.03125000 </v>
    <v>       0.03125000 </v>
    <v>       0.03125000 </v>
    <v>       0.03125000 </v>
    <v>       0.03125000 </v>
    <v>       0.03125000 </v>
    <v>       0.03125000 </v>
    <v>       0.03125000 </v>
    <v>       0.03125000 </v>
    <v>       0.03125000 </v>
    <v>       0.03125000 </v>
    <v>       0.03125000 </v>
    <v>       0.03125000 </v>
    <v>       0.03125000 </v>
    <v>       0.03125000 </v>
    <v>       0.03125000 </v>
    <v>       0.01562500 </v>
    <v>       0.03125000 </v>
    <v>       0.03125000 </v>
    <v>       0.03125000 </v>
    <v>       0.01562500 </v>
    <v>       0.01562500 </v>
    <v>       0.01562500 </v>
    <v>       0.03125000 </v>
    <v>       0.03125000 </v>
    <v>       0.03125000 </v>
   </varray>
  </kpoints>
  <scstep>
   <time name="total">    2.23    1.77</time>
   <energy>
    <i name="e_fr_energy">     -0.48320554 </i>
    <i name="e_wo_entrp">     -0.48320554 </i>
    <i name="e_0_energy">     -0.48320554 </i>
   </energy>
  </scstep>
  <scstep>
   <time name="total">    2.32    1.84</time>
   <energy>
    <i name="e_fr_energy">     -0.48536713 </i>
    <i name="e_wo_entrp">     -0.48536713 </i>
    <i name="e_0_energy">     -0.48536713 </i>
   </energy>
  </scstep>
  <scstep>
   <time name="total">    2.78    1.92</time>
   <energy>
    <i name="e_fr_energy">     -0.46513422 </i>
    <i name="e_wo_entrp">     -0.46513422 </i>
    <i name="e_0_energy">     -0.46513422 </i>
   </energy>
  </scstep>
  <scstep>
   <time name="total">    2.49    1.89</time>
   <energy>
    <i name="e_fr_energy">     -0.47593287 </i>
    <i name="e_wo_entrp">     -0.47593287 </i>
    <i name="e_0_energy">     -0.47593287 </i>
   </energy>
  </scstep>
  <scstep>
   <time name="total">    2.34    1.86</time>
   <energy>
    <i name="e_fr_energy">     -0.49364107 </i>
    <i name="e_wo_entrp">     -0.49364107 </i>
    <i name="e_0_energy">     -0.49364107 </i>
   </energy>
  </scstep>
  <scstep>
   <time name="total">    2.30    1.82</time>
   <energy>
    <i name="e_fr_energy">     -0.49654592 </i>
    <i name="e_wo_entrp">     -0.49654592 </i>
    <i name="e_0_energy">     -0.49654592 </i>
   </energy>
  </scstep>
  <scstep>
   <time name="total">    2.35    1.88</time>
   <energy>
    <i name="e_fr_energy">     -0.49679579 </i>
    <i name="e_wo_entrp">     -0.49679579 </i>
    <i name="e_0_energy">     -0.49679579 </i>
   </energy>
  </scstep>
  <scstep>
   <time name="total">    2.35    1.87</time>
   <energy>
    <i name="e_fr_energy">     -0.49702914 </i>
    <i name="e_wo_entrp">     -0.49702914 </i>
    <i name="e_0_energy">     -0.49702914 </i>
   </energy>
  </scstep>
  <scstep>
   <time name="total">    2.37    1.89</time>
   <energy>
    <i name="e_fr_energy">     -0.49709269 </i>
    <i name="e_wo_entrp">     -0.49709269 </i>
    <i name="e_0_energy">     -0.49709269 </i>
   </energy>
  </scstep>
  <scstep>
   <time name="total">    2.39    1.92</time>
   <energy>
    <i name="e_fr_energy">     -0.49708802 </i>
    <i name="e_wo_entrp">     -0.49708802 </i>
    <i name="e_0_energy">     -0.49708802 </i>
   </energy>
  </scstep>
  <scstep>
   <time name="total">    2.42    1.94</time>
   <energy>
    <i name="e_fr_energy">     -0.49708920 </i>
    <i name="e_wo_entrp">     -0.49708920 </i>
    <i name="e_0_energy">     -0.49708920 </i>
   </energy>
  </scstep>
  <scstep>
   <time name="total">    2.39    1.91</time>
   <energy>
    <i name="e_fr_energy">     -0.49708892 </i>
    <i name="e_wo_entrp">     -0.49708892 </i>
    <i name="e_0_energy">     -0.49708892 </i>
   </energy>
  </scstep>
  <scstep>
   <time name="total">    2.40    1.92</time>
   <energy>
    <i name="e_fr_energy">     -0.49708868 </i>
    <i name="e_wo_entrp">     -0.49708868 </i>
    <i name="e_0_energy">     -0.49708868 </i>
   </energy>
  </scstep>
  <scstep>
   <time name="total">    2.42    1.94</time>
   <energy>
    <i name="e_fr_energy">     -0.49708868 </i>
    <i name="e_wo_entrp">     -0.49708868 </i>
    <i name="e_0_energy">     -0.49708868 </i>
   </energy>
  </scstep>
  <kpoints>
   <generation param="Gamma">
    <v type="int" name="divisions">       4        4        4 </v>
    <v name="usershift">      0.00000000       0.00000000       0.00000000 </v>
    <v name="genvec1">      0.25000000       0.00000000       0.00000000 </v>
    <v name="genvec2">      0.00000000       0.25000000       0.00000000 </v>
    <v name="genvec3">      0.00000000       0.00000000       0.25000000 </v>
    <v name="shift">      0.00000000       0.00000000       0.00000000 </v>
   </generation>
   <varray name="kpointlist" >
    <v>       0.00000000       0.00000000       0.00000000 </v>
    <v>       0.25000000       0.00000000       0.00000000 </v>
    <v>       0.00000000       0.25000000       0.00000000 </v>
    <v>      -0.25000000       0.25000000       0.00000000 </v>
    <v>       0.50000000       0.00000000       0.00000000 </v>
    <v>       0.00000000       0.50000000       0.00000000 </v>
    <v>       0.50000000       0.50000000       0.00000000 </v>
    <v>       0.25000000       0.25000000       0.00000000 </v>
    <v>      -0.25000000       0.50000000       0.00000000 </v>
    <v>       0.50000000       0.25000000       0.00000000 </v>
    <v>       0.00000000       0.00000000       0.25000000 </v>
    <v>       0.25000000       0.00000000       0.25000000 </v>
    <v>       0.00000000       0.25000000       0.25000000 </v>
    <v>      -0.25000000       0.25000000       0.25000000 </v>
    <v>      -0.25000000       0.00000000       0.25000000 </v>
    <v>       0.00000000      -0.25000000       0.25000000 </v>
    <v>       0.25000000      -0.25000000       0.25000000 </v>
    <v>       0.50000000       0.00000000       0.25000000 </v>
    <v>       0.00000000       0.50000000       0.25000000 </v>
    <v>       0.50000000       0.50000000       0.25000000 </v>
    <v>       0.25000000       0.25000000       0.25000000 </v>
    <v>      -0.25000000       0.50000000       0.25000000 </v>
    <v>       0.50000000       0.25000000       0.25000000 </v>
    <v>      -0.25000000      -0.25000000       0.25000000 </v>
    <v>       0.25000000       0.50000000       0.25000000 </v>
    <v>       0.50000000      -0.25000000       0.25000000 </v>
    <v>       0.00000000       0.00000000       0.50000000 </v>
    <v>       0.25000000       0.00000000       0.50000000 </v>
    <v>       0.00000000       0.25000000       0.50000000 </v>
    <v>      -0.25000000       0.25000000       0.50000000 </v>
    <v>       0.50000000       0.00000000       0.50000000 </v>
    <v>       0.00000000       0.50000000       0.50000000 </v>
    <v>       0.50000000       0.50000000       0.50000000 </v>
    <v>       0.25000000       0.25000000       0.50000000 </v>
    <v>      -0.25000000       0.50000000       0.50000000 </v>
    <v>       0.50000000       0.25000000       0.50000000 </v>
   </varray>
   <varray name="weights" >
    <v>       0.01562500 </v>
    <v>       0.03125000 </v>
    <v>       0.03125000 </v>
    <v>       0.03125000 </v>
    <v>       0.01562500 </v>
    <v>       0.01562500 </v>
    <v>       0.01562500 </v>
    <v>       0.03125000 </v>
    <v>       0.03125000 </v>
    <v>       0.03125000 </v>
    <v>       0.03125000 </v>
    <v>       0.03125000 </v>
    <v>       0.03125000 </v>
    <v>       0.03125000 </v>
    <v>       0.03125000 </v>
    <v>       0.03125000 </v>
    <v>       0.03125000 </v>
    <v>       0.03125000 </v>
    <v>       0.03125000 </v>
    <v>       0.03125000 </v>
    <v>       0.03125000 </v>
    <v>       0.03125000 </v>
    <v>       0.03125000 </v>
    <v>       0.03125000 </v>
    <v>       0.03125000 </v>
    <v>       0.03125000 </v>
    <v>       0.01562500 </v>
    <v>       0.03125000 </v>
    <v>       0.03125000 </v>
    <v>       0.03125000 </v>
    <v>       0.01562500 </v>
    <v>       0.01562500 </v>
    <v>       0.01562500 </v>
    <v>       0.03125000 </v>
    <v>       0.03125000 </v>
    <v>       0.03125000 </v>
   </varray>
  </kpoints>
  <scstep>
   <time name="total">    2.23    1.76</time>
   <energy>
    <i name="e_fr_energy">     -0.48761078 </i>
    <i name="e_wo_entrp">     -0.48761078 </i>
    <i name="e_0_energy">     -0.48761078 </i>
   </energy>
  </scstep>
  <scstep>
   <time name="total">    2.29    1.81</time>
   <energy>
    <i name="e_fr_energy">     -0.48965640 </i>
    <i name="e_wo_entrp">     -0.48965640 </i>
    <i name="e_0_energy">     -0.48965640 </i>
   </energy>
  </scstep>
  <scstep>
   <time name="total">    2.32    1.84</time>
   <energy>
    <i name="e_fr_energy">     -0.47439432 </i>
    <i name="e_wo_entrp">     -0.47439432 </i>
    <i name="e_0_energy">     -0.47439432 </i>
   </energy>
  </scstep>
  <scstep>
   <time name="total">    2.33    1.84</time>
   <energy>
    <i name="e_fr_energy">     -0.48763737 </i>
    <i name="e_wo_entrp">     -0.48763737 </i>
    <i name="e_0_energy">     -0.48763737 </i>
   </energy>
  </scstep>
  <scstep>
   <time name="total">    2.33    1.84</time>
   <energy>
    <i name="e_fr_energy">     -0.50388032 </i>
    <i name="e_wo_entrp">     -0.50388032 </i>
    <i name="e_0_energy">     -0.50388032 </i>
   </energy>
  </scstep>
  <scstep>
   <time name="total">    2.29    1.81</time>
   <energy>
    <i name="e_fr_energy">     -0.50671807 </i>
    <i name="e_wo_entrp">     -0.50671807 </i>
    <i name="e_0_energy">     -0.50671807 </i>
   </energy>
  </scstep>
  <scstep>
   <time name="total">    2.35    1.86</time>
   <energy>
    <i name="e_fr_energy">     -0.50696323 </i>
    <i name="e_wo_entrp">     -0.50696323 </i>
    <i name="e_0_energy">     -0.50696323 </i>
   </energy>
  </scstep>
  <scstep>
   <time name="total">    2.35    1.86</time>
   <energy>
    <i name="e_fr_energy">     -0.50722840 </i>
    <i name="e_wo_entrp">     -0.50722840 </i>
    <i name="e_0_energy">     -0.50722840 </i>
   </energy>
  </scstep>
  <scstep>
   <time name="total">    2.36    1.87</time>
   <energy>
    <i name="e_fr_energy">     -0.50725090 </i>
    <i name="e_wo_entrp">     -0.50725090 </i>
    <i name="e_0_energy">     -0.50725090 </i>
   </energy>
  </scstep>
  <scstep>
   <time name="total">    2.38    1.90</time>
   <energy>
    <i name="e_fr_energy">     -0.50725276 </i>
    <i name="e_wo_entrp">     -0.50725276 </i>
    <i name="e_0_energy">     -0.50725276 </i>
   </energy>
  </scstep>
  <scstep>
   <time name="total">    2.40    1.91</time>
   <energy>
    <i name="e_fr_energy">     -0.50725147 </i>
    <i name="e_wo_entrp">     -0.50725147 </i>
    <i name="e_0_energy">     -0.50725147 </i>
   </energy>
  </scstep>
  <scstep>
   <time name="total">    2.37    1.89</time>
   <energy>
    <i name="e_fr_energy">     -0.50725158 </i>
    <i name="e_wo_entrp">     -0.50725158 </i>
    <i name="e_0_energy">     -0.50725158 </i>
   </energy>
  </scstep>
  <scstep>
   <time name="total">    2.40    1.91</time>
   <energy>
    <i name="e_fr_energy">     -0.50725149 </i>
    <i name="e_wo_entrp">     -0.50725149 </i>
    <i name="e_0_energy">     -0.50725149 </i>
   </energy>
  </scstep>
  <scstep>
   <time name="total">    2.38    1.90</time>
   <energy>
    <i name="e_fr_energy">     -0.50725155 </i>
    <i name="e_wo_entrp">     -0.50725155 </i>
    <i name="e_0_energy">     -0.50725155 </i>
   </energy>
  </scstep>
  <kpoints>
   <generation param="Gamma">
    <v type="int" name="divisions">       4        4        4 </v>
    <v name="usershift">      0.00000000       0.00000000       0.00000000 </v>
    <v name="genvec1">      0.25000000       0.00000000       0.00000000 </v>
    <v name="genvec2">      0.00000000       0.25000000       0.00000000 </v>
    <v name="genvec3">      0.00000000       0.00000000       0.25000000 </v>
    <v name="shift">      0.00000000       0.00000000       0.00000000 </v>
   </generation>
   <varray name="kpointlist" >
    <v>       0.00000000       0.00000000       0.00000000 </v>
    <v>       0.25000000       0.00000000       0.00000000 </v>
    <v>       0.00000000       0.25000000       0.00000000 </v>
    <v>       0.50000000       0.00000000       0.00000000 </v>
    <v>       0.00000000       0.50000000       0.00000000 </v>
    <v>       0.25000000       0.25000000       0.00000000 </v>
    <v>       0.50000000       0.25000000       0.00000000 </v>
    <v>       0.00000000       0.00000000       0.25000000 </v>
    <v>       0.25000000       0.00000000       0.25000000 </v>
    <v>       0.00000000       0.25000000       0.25000000 </v>
    <v>      -0.25000000       0.00000000       0.25000000 </v>
    <v>       0.00000000      -0.25000000       0.25000000 </v>
    <v>       0.50000000       0.00000000       0.25000000 </v>
    <v>       0.00000000       0.50000000       0.25000000 </v>
    <v>       0.25000000       0.25000000       0.25000000 </v>
    <v>       0.50000000       0.25000000       0.25000000 </v>
    <v>      -0.25000000      -0.25000000       0.25000000 </v>
    <v>       0.00000000       0.00000000       0.50000000 </v>
    <v>       0.25000000       0.00000000       0.50000000 </v>
    <v>       0.00000000       0.25000000       0.50000000 </v>
    <v>       0.50000000       0.00000000       0.50000000 </v>
    <v>       0.00000000       0.50000000       0.50000000 </v>
    <v>       0.25000000       0.25000000       0.50000000 </v>
    <v>       0.50000000       0.25000000       0.50000000 </v>
   </varray>
   <varray name="weights" >
    <v>       0.01562500 </v>
    <v>       0.06250000 </v>
    <v>       0.03125000 </v>
    <v>       0.03125000 </v>
    <v>       0.01562500 </v>
    <v>       0.06250000 </v>
    <v>       0.03125000 </v>
    <v>       0.03125000 </v>
    <v>       0.06250000 </v>
    <v>       0.03125000 </v>
    <v>       0.06250000 </v>
    <v>       0.03125000 </v>
    <v>       0.06250000 </v>
    <v>       0.03125000 </v>
    <v>       0.06250000 </v>
    <v>       0.06250000 </v>
    <v>       0.06250000 </v>
    <v>       0.01562500 </v>
    <v>       0.06250000 </v>
    <v>       0.03125000 </v>
    <v>       0.03125000 </v>
    <v>       0.01562500 </v>
    <v>       0.06250000 </v>
    <v>       0.03125000 </v>
   </varray>
  </kpoints>
  <varray name="dielectric_dft" >
   <v>       2.48078515       0.00000000       0.00000000 </v>
   <v>       0.00000000       2.48085842       0.00014810 </v>
   <v>       0.00000000       0.00014639       2.51334528 </v>
  </varray>
  <varray name="epsilon" >
   <v>       2.48078515       0.00000000       0.00000000 </v>
   <v>       0.00000000       2.48085842       0.00014810 </v>
   <v>       0.00000000       0.00014639       2.51334528 </v>
  </varray>
  <kpoints>
   <generation param="Gamma">
    <v type="int" name="divisions">       4        4        4 </v>
    <v name="usershift">      0.00000000       0.00000000       0.00000000 </v>
    <v name="genvec1">      0.25000000       0.00000000       0.00000000 </v>
    <v name="genvec2">      0.00000000       0.25000000       0.00000000 </v>
    <v name="genvec3">      0.00000000       0.00000000       0.25000000 </v>
    <v name="shift">      0.00000000       0.00000000       0.00000000 </v>
   </generation>
   <varray name="kpointlist" >
    <v>       0.00000000       0.00000000       0.00000000 </v>
    <v>       0.25000000       0.00000000       0.00000000 </v>
    <v>       0.00000000       0.25000000       0.00000000 </v>
    <v>       0.50000000       0.00000000       0.00000000 </v>
    <v>       0.00000000       0.50000000       0.00000000 </v>
    <v>       0.25000000       0.25000000       0.00000000 </v>
    <v>       0.50000000       0.25000000       0.00000000 </v>
    <v>       0.00000000       0.00000000       0.25000000 </v>
    <v>       0.25000000       0.00000000       0.25000000 </v>
    <v>       0.00000000       0.25000000       0.25000000 </v>
    <v>      -0.25000000       0.00000000       0.25000000 </v>
    <v>       0.00000000      -0.25000000       0.25000000 </v>
    <v>       0.50000000       0.00000000       0.25000000 </v>
    <v>       0.00000000       0.50000000       0.25000000 </v>
    <v>       0.25000000       0.25000000       0.25000000 </v>
    <v>       0.50000000       0.25000000       0.25000000 </v>
    <v>      -0.25000000      -0.25000000       0.25000000 </v>
    <v>       0.00000000       0.00000000       0.50000000 </v>
    <v>       0.25000000       0.00000000       0.50000000 </v>
    <v>       0.00000000       0.25000000       0.50000000 </v>
    <v>       0.50000000       0.00000000       0.50000000 </v>
    <v>       0.00000000       0.50000000       0.50000000 </v>
    <v>       0.25000000       0.25000000       0.50000000 </v>
    <v>       0.50000000       0.25000000       0.50000000 </v>
   </varray>
   <varray name="weights" >
    <v>       0.01562500 </v>
    <v>       0.06250000 </v>
    <v>       0.03125000 </v>
    <v>       0.03125000 </v>
    <v>       0.01562500 </v>
    <v>       0.06250000 </v>
    <v>       0.03125000 </v>
    <v>       0.03125000 </v>
    <v>       0.06250000 </v>
    <v>       0.03125000 </v>
    <v>       0.06250000 </v>
    <v>       0.03125000 </v>
    <v>       0.06250000 </v>
    <v>       0.03125000 </v>
    <v>       0.06250000 </v>
    <v>       0.06250000 </v>
    <v>       0.06250000 </v>
    <v>       0.01562500 </v>
    <v>       0.06250000 </v>
    <v>       0.03125000 </v>
    <v>       0.03125000 </v>
    <v>       0.01562500 </v>
    <v>       0.06250000 </v>
    <v>       0.03125000 </v>
   </varray>
  </kpoints>
  <array name="born_charges" >
   <dimension dim="1">ion</dimension>
   <set>
    <v>       2.98018745       0.00000000      -0.00000000 </v>
    <v>       0.00000000       3.61946715      -0.32114534 </v>
    <v>       0.00000000       0.27791779       3.42548881 </v>
   </set>
   <set>
    <v>       3.46083692       0.27734060       0.27844394 </v>
    <v>       0.27725437       3.14088401       0.16067693 </v>
    <v>      -0.24070166      -0.13928081       3.42528447 </v>
   </set>
   <set>
    <v>       3.46083692      -0.27734060      -0.27844394 </v>
    <v>      -0.27725437       3.14088401       0.16067693 </v>
    <v>       0.24070166      -0.13928081       3.42528447 </v>
   </set>
   <set>
    <v>      -1.31135252      -0.49334054      -0.31018313 </v>
    <v>      -0.43640042      -1.98940351      -0.67865979 </v>
    <v>      -0.24309684      -0.72135807      -1.71232144 </v>
   </set>
   <set>
    <v>      -2.22250743      -0.08996812       0.74373504 </v>
    <v>      -0.03296346      -1.07828205       0.07083105 </v>
    <v>       0.74691989       0.15003793      -1.71339466 </v>
   </set>
   <set>
    <v>      -1.41707070       0.49714049      -0.43270617 </v>
    <v>       0.55479808      -1.88293203       0.60772449 </v>
    <v>      -0.50270449       0.57164206      -1.71231277 </v>
   </set>
   <set>
    <v>      -1.31135252       0.49334054       0.31018313 </v>
    <v>       0.43640042      -1.98940351      -0.67865979 </v>
    <v>       0.24309684      -0.72135807      -1.71232144 </v>
   </set>
   <set>
    <v>      -2.22250743       0.08996812      -0.74373504 </v>
    <v>       0.03296346      -1.07828205       0.07083105 </v>
    <v>      -0.74691989       0.15003793      -1.71339466 </v>
   </set>
   <set>
    <v>      -1.41707070      -0.49714049       0.43270617 </v>
    <v>      -0.55479808      -1.88293203       0.60772449 </v>
    <v>       0.50270449       0.57164206      -1.71231277 </v>
   </set>
  </array>
  <time name="totalsc">  317.34  185.95</time>
  <eigenvalues>
   <array>
    <dimension dim="1">band</dimension>
    <dimension dim="2">kpoint</dimension>
    <dimension dim="3">spin</dimension>
    <field>eigene</field>
    <field>occ</field>
    <set>
     <set comment="spin 1">
      <set comment="kpoint 1">
       <r>  -18.1719    1.0000 </r>
       <r>  -16.6208    1.0000 </r>
       <r>  -16.6193    1.0000 </r>
       <r>  -15.9516    1.0000 </r>
       <r>  -15.9433    1.0000 </r>
       <r>  -15.9413    1.0000 </r>
       <r>   -6.8802    1.0000 </r>
       <r>   -6.8777    1.0000 </r>
       <r>   -4.1465    1.0000 </r>
       <r>   -4.0639    1.0000 </r>
       <r>   -3.9117    1.0000 </r>
       <r>   -3.9106    1.0000 </r>
       <r>   -1.6871    1.0000 </r>
       <r>   -1.6842    1.0000 </r>
       <r>   -1.3748    1.0000 </r>
       <r>   -1.1506    1.0000 </r>
       <r>   -0.1559    1.0000 </r>
       <r>   -0.1550    1.0000 </r>
       <r>   -0.0980    1.0000 </r>
       <r>    0.2595    1.0000 </r>
       <r>    0.2631    1.0000 </r>
       <r>    0.4586    1.0000 </r>
       <r>    1.0033    1.0000 </r>
       <r>    1.0051    1.0000 </r>
       <r>    7.3235    0.0000 </r>
       <r>   10.6073    0.0000 </r>
       <r>   10.6097    0.0000 </r>
       <r>   11.2349    0.0000 </r>
       <r>   11.2384    0.0000 </r>
      </set>
      <set comment="kpoint 2">
       <r>  -17.9880    1.0000 </r>
       <r>  -16.8197    1.0000 </r>
       <r>  -16.5934    1.0000 </r>
       <r>  -16.0189    1.0000 </r>
       <r>  -15.9757    1.0000 </r>
       <r>  -15.9424    1.0000 </r>
       <r>   -6.9565    1.0000 </r>
       <r>   -6.5094    1.0000 </r>
       <r>   -4.2180    1.0000 </r>
       <r>   -4.1544    1.0000 </r>
       <r>   -4.0327    1.0000 </r>
       <r>   -3.6183    1.0000 </r>
       <r>   -1.8725    1.0000 </r>
       <r>   -1.5571    1.0000 </r>
       <r>   -1.3477    1.0000 </r>
       <r>   -0.8969    1.0000 </r>
       <r>   -0.6976    1.0000 </r>
       <r>   -0.2388    1.0000 </r>
       <r>   -0.1602    1.0000 </r>
       <r>    0.1803    1.0000 </r>
       <r>    0.2764    1.0000 </r>
       <r>    0.4209    1.0000 </r>
       <r>    1.0535    1.0000 </r>
       <r>    1.1413    1.0000 </r>
       <r>    8.2328    0.0000 </r>
       <r>   10.6693    0.0000 </r>
       <r>   10.7207    0.0000 </r>
       <r>   11.2078    0.0000 </r>
       <r>   11.4832    0.0000 </r>
      </set>
      <set comment="kpoint 3">
       <r>  -17.9879    1.0000 </r>
       <r>  -16.8198    1.0000 </r>
       <r>  -16.5941    1.0000 </r>
       <r>  -16.0187    1.0000 </r>
       <r>  -15.9757    1.0000 </r>
       <r>  -15.9418    1.0000 </r>
       <r>   -6.9578    1.0000 </r>
       <r>   -6.5087    1.0000 </r>
       <r>   -4.2168    1.0000 </r>
       <r>   -4.1538    1.0000 </r>
       <r>   -4.0325    1.0000 </r>
       <r>   -3.6200    1.0000 </r>
       <r>   -1.8736    1.0000 </r>
       <r>   -1.5558    1.0000 </r>
       <r>   -1.3477    1.0000 </r>
       <r>   -0.8969    1.0000 </r>
       <r>   -0.6963    1.0000 </r>
       <r>   -0.2398    1.0000 </r>
       <r>   -0.1597    1.0000 </r>
       <r>    0.1773    1.0000 </r>
       <r>    0.2779    1.0000 </r>
       <r>    0.4212    1.0000 </r>
       <r>    1.0537    1.0000 </r>
       <r>    1.1422    1.0000 </r>
       <r>    8.2334    0.0000 </r>
       <r>   10.6704    0.0000 </r>
       <r>   10.7186    0.0000 </r>
       <r>   11.2062    0.0000 </r>
       <r>   11.4818    0.0000 </r>
      </set>
      <set comment="kpoint 4">
       <r>  -17.6652    1.0000 </r>
       <r>  -17.1815    1.0000 </r>
       <r>  -16.5648    1.0000 </r>
       <r>  -16.0455    1.0000 </r>
       <r>  -16.0000    1.0000 </r>
       <r>  -15.9688    1.0000 </r>
       <r>   -7.0302    1.0000 </r>
       <r>   -6.0435    1.0000 </r>
       <r>   -4.5571    1.0000 </r>
       <r>   -4.0966    1.0000 </r>
       <r>   -4.0890    1.0000 </r>
       <r>   -3.2810    1.0000 </r>
       <r>   -1.8237    1.0000 </r>
       <r>   -1.6222    1.0000 </r>
       <r>   -1.4348    1.0000 </r>
       <r>   -1.0018    1.0000 </r>
       <r>   -0.7929    1.0000 </r>
       <r>   -0.4789    1.0000 </r>
       <r>   -0.2882    1.0000 </r>
       <r>    0.1964    1.0000 </r>
       <r>    0.2818    1.0000 </r>
       <r>    0.5593    1.0000 </r>
       <r>    1.0146    1.0000 </r>
       <r>    1.2409    1.0000 </r>
       <r>    9.6340    0.0000 </r>
       <r>   10.3720    0.0000 </r>
       <r>   10.9663    0.0000 </r>
       <r>   10.9905    0.0000 </r>
       <r>   11.9976    0.0000 </r>
      </set>
      <set comment="kpoint 5">
       <r>  -17.6645    1.0000 </r>
       <r>  -17.1829    1.0000 </r>
       <r>  -16.5649    1.0000 </r>
       <r>  -16.0445    1.0000 </r>
       <r>  -16.0023    1.0000 </r>
       <r>  -15.9665    1.0000 </r>
       <r>   -7.0312    1.0000 </r>
       <r>   -6.0448    1.0000 </r>
       <r>   -4.5542    1.0000 </r>
       <r>   -4.0947    1.0000 </r>
       <r>   -4.0897    1.0000 </r>
       <r>   -3.2833    1.0000 </r>
       <r>   -1.8240    1.0000 </r>
       <r>   -1.6236    1.0000 </r>
       <r>   -1.4348    1.0000 </r>
       <r>   -0.9999    1.0000 </r>
       <r>   -0.7914    1.0000 </r>
       <r>   -0.4806    1.0000 </r>
       <r>   -0.2870    1.0000 </r>
[...]
       <r>    1.1191    1.0000 </r>
       <r>   10.2260    0.0000 </r>
       <r>   10.7245    0.0000 </r>
       <r>   11.0188    0.0000 </r>
       <r>   11.2022    0.0000 </r>
       <r>   11.5374    0.0000 </r>
      </set>
      <set comment="kpoint 22">
       <r>  -17.5868    1.0000 </r>
       <r>  -17.1422    1.0000 </r>
       <r>  -16.7044    1.0000 </r>
       <r>  -16.0754    1.0000 </r>
       <r>  -15.9926    1.0000 </r>
       <r>  -15.9576    1.0000 </r>
       <r>   -6.8765    1.0000 </r>
       <r>   -5.9148    1.0000 </r>
       <r>   -5.0462    1.0000 </r>
       <r>   -3.9972    1.0000 </r>
       <r>   -3.7073    1.0000 </r>
       <r>   -3.6132    1.0000 </r>
       <r>   -1.9320    1.0000 </r>
       <r>   -1.9231    1.0000 </r>
       <r>   -1.1445    1.0000 </r>
       <r>   -0.8274    1.0000 </r>
       <r>   -0.7466    1.0000 </r>
       <r>   -0.2764    1.0000 </r>
       <r>    0.0231    1.0000 </r>
       <r>    0.1887    1.0000 </r>
       <r>    0.3977    1.0000 </r>
       <r>    0.4069    1.0000 </r>
       <r>    0.6982    1.0000 </r>
       <r>    1.1202    1.0000 </r>
       <r>   10.2300    0.0000 </r>
       <r>   10.7265    0.0000 </r>
       <r>   11.0061    0.0000 </r>
       <r>   11.1960    0.0000 </r>
       <r>   11.5416    0.0000 </r>
      </set>
      <set comment="kpoint 23">
       <r>  -17.5752    1.0000 </r>
       <r>  -17.1860    1.0000 </r>
       <r>  -16.6524    1.0000 </r>
       <r>  -16.0621    1.0000 </r>
       <r>  -15.9930    1.0000 </r>
       <r>  -15.9920    1.0000 </r>
       <r>   -6.8569    1.0000 </r>
       <r>   -5.8699    1.0000 </r>
       <r>   -5.1560    1.0000 </r>
       <r>   -3.8984    1.0000 </r>
       <r>   -3.7951    1.0000 </r>
       <r>   -3.6150    1.0000 </r>
       <r>   -1.9741    1.0000 </r>
       <r>   -1.7473    1.0000 </r>
       <r>   -1.2643    1.0000 </r>
       <r>   -0.9001    1.0000 </r>
       <r>   -0.6223    1.0000 </r>
       <r>   -0.4226    1.0000 </r>
       <r>    0.1499    1.0000 </r>
       <r>    0.2551    1.0000 </r>
       <r>    0.3285    1.0000 </r>
       <r>    0.5715    1.0000 </r>
       <r>    0.7165    1.0000 </r>
       <r>    0.9243    1.0000 </r>
       <r>   10.1780    0.0000 </r>
       <r>   10.6503    0.0000 </r>
       <r>   10.9613    0.0000 </r>
       <r>   11.3044    0.0000 </r>
       <r>   11.7225    0.0000 </r>
      </set>
      <set comment="kpoint 24">
       <r>  -17.5753    1.0000 </r>
       <r>  -17.1859    1.0000 </r>
       <r>  -16.6522    1.0000 </r>
       <r>  -16.0611    1.0000 </r>
       <r>  -15.9936    1.0000 </r>
       <r>  -15.9927    1.0000 </r>
       <r>   -6.8561    1.0000 </r>
       <r>   -5.8704    1.0000 </r>
       <r>   -5.1566    1.0000 </r>
       <r>   -3.8966    1.0000 </r>
       <r>   -3.7950    1.0000 </r>
       <r>   -3.6165    1.0000 </r>
       <r>   -1.9736    1.0000 </r>
       <r>   -1.7460    1.0000 </r>
       <r>   -1.2656    1.0000 </r>
       <r>   -0.9007    1.0000 </r>
       <r>   -0.6225    1.0000 </r>
       <r>   -0.4214    1.0000 </r>
       <r>    0.1482    1.0000 </r>
       <r>    0.2569    1.0000 </r>
       <r>    0.3281    1.0000 </r>
       <r>    0.5707    1.0000 </r>
       <r>    0.7163    1.0000 </r>
       <r>    0.9238    1.0000 </r>
       <r>   10.1752    0.0000 </r>
       <r>   10.6523    0.0000 </r>
       <r>   10.9673    0.0000 </r>
       <r>   11.3058    0.0000 </r>
       <r>   11.7231    0.0000 </r>
      </set>
     </set>
    </set>
   </array>
  </eigenvalues>
  <separator name="orbital magnetization" >
   <v name="MAGDIPOLOUT">      0.00000000      0.00000000      0.00000000</v>
  </separator>
  <dos>
   <i name="efermi">      1.78551300 </i>
   <total>
    <array>
     <dimension dim="1">gridpoints</dimension>
     <dimension dim="2">spin</dimension>
     <field>energy</field>
     <field>total</field>
     <field>integrated</field>
     <set>
      <set comment="spin 1">
       <r>   -19.6806     0.0000     0.0000 </r>
       <r>   -19.5699     0.0000     0.0000 </r>
       <r>   -19.4593     0.0000     0.0000 </r>
       <r>   -19.3487     0.0000     0.0000 </r>
       <r>   -19.2380     0.0000     0.0000 </r>
       <r>   -19.1274     0.0000     0.0000 </r>
       <r>   -19.0168     0.0000     0.0000 </r>
       <r>   -18.9061     0.0000     0.0000 </r>
       <r>   -18.7955     0.0000     0.0000 </r>
       <r>   -18.6849     0.0000     0.0000 </r>
       <r>   -18.5742     0.0000     0.0000 </r>
       <r>   -18.4636     0.0000     0.0000 </r>
       <r>   -18.3530     0.0015     0.0002 </r>
       <r>   -18.2423     0.0455     0.0052 </r>
       <r>   -18.1317     0.2561     0.0335 </r>
       <r>   -18.0211     0.9593     0.1397 </r>
       <r>   -17.9104     2.1806     0.3809 </r>
       <r>   -17.7998     2.2489     0.6297 </r>
       <r>   -17.6892     3.1566     0.9789 </r>
       <r>   -17.5785     6.7082     1.7211 </r>
       <r>   -17.4679     3.7409     2.1349 </r>
       <r>   -17.3573     0.7672     2.2198 </r>
       <r>   -17.2467     1.6689     2.4044 </r>
       <r>   -17.1360     7.3351     3.2159 </r>
       <r>   -17.0254     4.6984     3.7357 </r>
       <r>   -16.9148     0.5603     3.7977 </r>
       <r>   -16.8041     0.9825     3.9064 </r>
       <r>   -16.6935     2.7482     4.2105 </r>
       <r>   -16.5829     6.4608     4.9252 </r>
       <r>   -16.4722     3.7442     5.3395 </r>
       <r>   -16.3616     1.9951     5.5602 </r>
       <r>   -16.2510     2.2035     5.8040 </r>
       <r>   -16.1403     3.0196     6.1381 </r>
       <r>   -16.0297    16.1221     7.9217 </r>
       <r>   -15.9191    27.1159    10.9216 </r>
       <r>   -15.8084     9.2140    11.9409 </r>
       <r>   -15.6978     0.5298    11.9995 </r>
       <r>   -15.5872     0.0041    12.0000 </r>
       <r>   -15.4765     0.0000    12.0000 </r>
       <r>   -15.3659     0.0000    12.0000 </r>
       <r>   -15.2553     0.0000    12.0000 </r>
       <r>   -15.1446     0.0000    12.0000 </r>
       <r>   -15.0340     0.0000    12.0000 </r>
       <r>   -14.9234     0.0000    12.0000 </r>
       <r>   -14.8127     0.0000    12.0000 </r>
       <r>   -14.7021     0.0000    12.0000 </r>
       <r>   -14.5915     0.0000    12.0000 </r>
       <r>   -14.4809     0.0000    12.0000 </r>
       <r>   -14.3702     0.0000    12.0000 </r>
       <r>   -14.2596     0.0000    12.0000 </r>
       <r>   -14.1490     0.0000    12.0000 </r>
       <r>   -14.0383     0.0000    12.0000 </r>
       <r>   -13.9277     0.0000    12.0000 </r>
       <r>   -13.8171     0.0000    12.0000 </r>
       <r>   -13.7064     0.0000    12.0000 </r>
       <r>   -13.5958     0.0000    12.0000 </r>
       <r>   -13.4852     0.0000    12.0000 </r>
       <r>   -13.3745     0.0000    12.0000 </r>
       <r>   -13.2639     0.0000    12.0000 </r>
       <r>   -13.1533     0.0000    12.0000 </r>
       <r>   -13.0426     0.0000    12.0000 </r>
       <r>   -12.9320     0.0000    12.0000 </r>
       <r>   -12.8214     0.0000    12.0000 </r>
       <r>   -12.7107     0.0000    12.0000 </r>
       <r>   -12.6001     0.0000    12.0000 </r>
       <r>   -12.4895     0.0000    12.0000 </r>
       <r>   -12.3788     0.0000    12.0000 </r>
       <r>   -12.2682     0.0000    12.0000 </r>
       <r>   -12.1576     0.0000    12.0000 </r>
       <r>   -12.0469     0.0000    12.0000 </r>
       <r>   -11.9363     0.0000    12.0000 </r>
       <r>   -11.8257     0.0000    12.0000 </r>
       <r>   -11.7151     0.0000    12.0000 </r>
       <r>   -11.6044     0.0000    12.0000 </r>
       <r>   -11.4938     0.0000    12.0000 </r>
       <r>   -11.3832     0.0000    12.0000 </r>
       <r>   -11.2725     0.0000    12.0000 </r>
       <r>   -11.1619     0.0000    12.0000 </r>
       <r>   -11.0513     0.0000    12.0000 </r>
       <r>   -10.9406     0.0000    12.0000 </r>
       <r>   -10.8300     0.0000    12.0000 </r>
       <r>   -10.7194     0.0000    12.0000 </r>
       <r>   -10.6087     0.0000    12.0000 </r>
       <r>   -10.4981     0.0000    12.0000 </r>
       <r>   -10.3875     0.0000    12.0000 </r>
       <r>   -10.2768     0.0000    12.0000 </r>
       <r>   -10.1662     0.0000    12.0000 </r>
       <r>   -10.0556     0.0000    12.0000 </r>
       <r>    -9.9449     0.0000    12.0000 </r>
       <r>    -9.8343     0.0000    12.0000 </r>
       <r>    -9.7237     0.0000    12.0000 </r>
       <r>    -9.6130     0.0000    12.0000 </r>
       <r>    -9.5024     0.0000    12.0000 </r>
       <r>    -9.3918     0.0000    12.0000 </r>
       <r>    -9.2811     0.0000    12.0000 </r>
       <r>    -9.1705     0.0000    12.0000 </r>
       <r>    -9.0599     0.0000    12.0000 </r>
       <r>    -8.9493     0.0000    12.0000 </r>
       <r>    -8.8386     0.0000    12.0000 </r>
       <r>    -8.7280     0.0000    12.0000 </r>
       <r>    -8.6174     0.0000    12.0000 </r>
       <r>    -8.5067     0.0000    12.0000 </r>
       <r>    -8.3961     0.0000    12.0000 </r>
       <r>    -8.2855     0.0000    12.0000 </r>
       <r>    -8.1748     0.0001    12.0000 </r>
       <r>    -8.0642     0.0119    12.0013 </r>
       <r>    -7.9536     0.1118    12.0137 </r>
       <r>    -7.8429     0.1382    12.0290 </r>
       <r>    -7.7323     0.0946    12.0395 </r>
       <r>    -7.6217     0.4198    12.0859 </r>
       <r>    -7.5110     0.9780    12.1941 </r>
       <r>    -7.4004     1.2339    12.3306 </r>
       <r>    -7.2898     1.9630    12.5478 </r>
       <r>    -7.1791     1.0204    12.6607 </r>
       <r>    -7.0685     1.4068    12.8163 </r>
       <r>    -6.9579     4.6415    13.3298 </r>
       <r>    -6.8472     4.7309    13.8532 </r>
       <r>    -6.7366     1.4962    14.0187 </r>
       <r>    -6.6260     0.1957    14.0404 </r>
       <r>    -6.5153     0.7063    14.1185 </r>
       <r>    -6.4047     0.7879    14.2057 </r>
       <r>    -6.2941     0.1164    14.2185 </r>
       <r>    -6.1835     0.0265    14.2215 </r>
       <r>    -6.0728     0.5353    14.2807 </r>
       <r>    -5.9622     3.4560    14.6630 </r>
       <r>    -5.8516     6.9580    15.4328 </r>
       <r>    -5.7409     2.9498    15.7592 </r>
       <r>    -5.6303     0.1981    15.7811 </r>
       <r>    -5.5197     0.0180    15.7831 </r>
       <r>    -5.4090     0.3556    15.8224 </r>
       <r>    -5.2984     0.9968    15.9327 </r>
       <r>    -5.1878     0.9285    16.0354 </r>
       <r>    -5.0771     2.2079    16.2797 </r>
       <r>    -4.9665     3.8996    16.7111 </r>
       <r>    -4.8559     2.9682    17.0395 </r>
       <r>    -4.7452     1.8684    17.2462 </r>
       <r>    -4.6346     1.8080    17.4462 </r>
       <r>    -4.5240     1.9877    17.6661 </r>
       <r>    -4.4133     0.6160    17.7342 </r>
       <r>    -4.3027     0.7546    17.8177 </r>
       <r>    -4.1921     3.1149    18.1623 </r>
       <r>    -4.0814     8.9014    19.1471 </r>
       <r>    -3.9708     9.6596    20.2158 </r>
       <r>    -3.8602     6.6501    20.9515 </r>
       <r>    -3.7495     6.7667    21.7001 </r>
       <r>    -3.6389     5.6580    22.3260 </r>
       <r>    -3.5283     5.6948    22.9561 </r>
       <r>    -3.4176     5.0788    23.5180 </r>
       <r>    -3.3070     2.6534    23.8115 </r>
       <r>    -3.1964     1.4446    23.9713 </r>
       <r>    -3.0858     0.2534    23.9994 </r>
       <r>    -2.9751     0.0057    24.0000 </r>
       <r>    -2.8645     0.0000    24.0000 </r>
       <r>    -2.7539     0.0000    24.0000 </r>
       <r>    -2.6432     0.0000    24.0000 </r>
       <r>    -2.5326     0.0000    24.0000 </r>
       <r>    -2.4220     0.0000    24.0000 </r>
       <r>    -2.3113     0.0000    24.0000 </r>
       <r>    -2.2007     0.0016    24.0002 </r>
       <r>    -2.0901     0.1668    24.0186 </r>
       <r>    -1.9794     2.6612    24.3130 </r>
       <r>    -1.8688     7.9763    25.1955 </r>
       <r>    -1.7582     8.1227    26.0941 </r>
       <r>    -1.6475     6.8106    26.8476 </r>
       <r>    -1.5369     5.3376    27.4381 </r>
       <r>    -1.4263     6.3891    28.1449 </r>
       <r>    -1.3156     8.4912    29.0843 </r>
       <r>    -1.2050     5.9262    29.7400 </r>
       <r>    -1.0944     3.8830    30.1695 </r>
       <r>    -0.9837     4.8708    30.7084 </r>
       <r>    -0.8731     8.4029    31.6380 </r>
       <r>    -0.7625     6.9263    32.4043 </r>
       <r>    -0.6518     7.3841    33.2212 </r>
       <r>    -0.5412     6.3096    33.9193 </r>
       <r>    -0.4306     6.2689    34.6128 </r>
       <r>    -0.3200     5.9482    35.2709 </r>
       <r>    -0.2093     8.0797    36.1647 </r>
       <r>    -0.0987     9.8336    37.2527 </r>
       <r>     0.0119     8.1656    38.1560 </r>
       <r>     0.1226     8.9477    39.1459 </r>
       <r>     0.2332     9.4986    40.1968 </r>
       <r>     0.3438    10.7015    41.3807 </r>
       <r>     0.4545     8.7120    42.3445 </r>
       <r>     0.5651     5.7904    42.9851 </r>
       <r>     0.6757     6.2803    43.6799 </r>
       <r>     0.7864     5.2747    44.2635 </r>
       <r>     0.8970     6.6638    45.0007 </r>
       <r>     1.0076     6.7036    45.7424 </r>
       <r>     1.1183     7.8459    46.6104 </r>
       <r>     1.2289     8.2802    47.5264 </r>
       <r>     1.3395     3.7350    47.9396 </r>
       <r>     1.4502     0.5327    47.9986 </r>
       <r>     1.5608     0.0128    48.0000 </r>
       <r>     1.6714     0.0000    48.0000 </r>
       <r>     1.7821     0.0000    48.0000 </r>
       <r>     1.8927     0.0000    48.0000 </r>
       <r>     2.0033     0.0000    48.0000 </r>
       <r>     2.1140     0.0000    48.0000 </r>
       <r>     2.2246     0.0000    48.0000 </r>
       <r>     2.3352     0.0000    48.0000 </r>
       <r>     2.4458     0.0000    48.0000 </r>
       <r>     2.5565     0.0000    48.0000 </r>
       <r>     2.6671     0.0000    48.0000 </r>
       <r>     2.7777     0.0000    48.0000 </r>
       <r>     2.8884     0.0000    48.0000 </r>
       <r>     2.9990     0.0000    48.0000 </r>
       <r>     3.1096     0.0000    48.0000 </r>
       <r>     3.2203     0.0000    48.0000 </r>
       <r>     3.3309     0.0000    48.0000 </r>
       <r>     3.4415     0.0000    48.0000 </r>
       <r>     3.5522     0.0000    48.0000 </r>
       <r>     3.6628     0.0000    48.0000 </r>
       <r>     3.7734     0.0000    48.0000 </r>
       <r>     3.8841     0.0000    48.0000 </r>
       <r>     3.9947     0.0000    48.0000 </r>
       <r>     4.1053     0.0000    48.0000 </r>
       <r>     4.2160     0.0000    48.0000 </r>
       <r>     4.3266     0.0000    48.0000 </r>
       <r>     4.4372     0.0000    48.0000 </r>
       <r>     4.5479     0.0000    48.0000 </r>
       <r>     4.6585     0.0000    48.0000 </r>
       <r>     4.7691     0.0000    48.0000 </r>
       <r>     4.8798     0.0000    48.0000 </r>
       <r>     4.9904     0.0000    48.0000 </r>
       <r>     5.1010     0.0000    48.0000 </r>
       <r>     5.2116     0.0000    48.0000 </r>
       <r>     5.3223     0.0000    48.0000 </r>
       <r>     5.4329     0.0000    48.0000 </r>
       <r>     5.5435     0.0000    48.0000 </r>
       <r>     5.6542     0.0000    48.0000 </r>
       <r>     5.7648     0.0000    48.0000 </r>
       <r>     5.8754     0.0000    48.0000 </r>
       <r>     5.9861     0.0000    48.0000 </r>
       <r>     6.0967     0.0000    48.0000 </r>
       <r>     6.2073     0.0000    48.0000 </r>
       <r>     6.3180     0.0000    48.0000 </r>
       <r>     6.4286     0.0000    48.0000 </r>
       <r>     6.5392     0.0000    48.0000 </r>
       <r>     6.6499     0.0000    48.0000 </r>
       <r>     6.7605     0.0000    48.0000 </r>
       <r>     6.8711     0.0000    48.0000 </r>
       <r>     6.9818     0.0000    48.0000 </r>
       <r>     7.0924     0.0002    48.0000 </r>
       <r>     7.2030     0.0123    48.0014 </r>
       <r>     7.3137     0.1131    48.0139 </r>
       <r>     7.4243     0.1351    48.0288 </r>
       <r>     7.5349     0.0213    48.0312 </r>
       <r>     7.6456     0.0004    48.0313 </r>
       <r>     7.7562     0.0031    48.0316 </r>
       <r>     7.8668     0.0897    48.0415 </r>
       <r>     7.9774     0.3151    48.0764 </r>
       <r>     8.0881     0.1824    48.0966 </r>
       <r>     8.1987     0.5066    48.1526 </r>
       <r>     8.3093     0.9254    48.2550 </r>
       <r>     8.4200     0.2309    48.2805 </r>
       <r>     8.5306     0.0581    48.2870 </r>
       <r>     8.6412     0.8233    48.3780 </r>
       <r>     8.7519     1.8568    48.5835 </r>
       <r>     8.8625     0.6286    48.6530 </r>
       <r>     8.9731     0.0292    48.6562 </r>
       <r>     9.0838     0.0006    48.6563 </r>
       <r>     9.1944     0.0299    48.6596 </r>
       <r>     9.3050     0.2542    48.6877 </r>
       <r>     9.4157     0.5768    48.7515 </r>
       <r>     9.5263     1.0774    48.8707 </r>
       <r>     9.6369     1.4587    49.0321 </r>
       <r>     9.7476     3.0763    49.3725 </r>
       <r>     9.8582     2.9669    49.7007 </r>
       <r>     9.9688     1.7407    49.8933 </r>
       <r>    10.0795     0.5426    49.9533 </r>
       <r>    10.1901     1.0878    50.0736 </r>
       <r>    10.3007     1.3700    50.2252 </r>
       <r>    10.4114     2.0720    50.4544 </r>
       <r>    10.5220     3.1222    50.7999 </r>
       <r>    10.6326     5.1084    51.3650 </r>
       <r>    10.7433     9.0617    52.3675 </r>
       <r>    10.8539     6.1616    53.0492 </r>
       <r>    10.9645     6.5614    53.7751 </r>
       <r>    11.0751     7.3261    54.5856 </r>
       <r>    11.1858     2.9993    54.9174 </r>
       <r>    11.2964     3.6876    55.3254 </r>
       <r>    11.4070     5.6696    55.9526 </r>
       <r>    11.5177     6.3251    56.6524 </r>
       <r>    11.6283     5.3279    57.2418 </r>
       <r>    11.7389     3.3587    57.6134 </r>
       <r>    11.8496     2.1495    57.8512 </r>
       <r>    11.9602     0.7249    57.9314 </r>
       <r>    12.0708     0.4902    57.9856 </r>
       <r>    12.1815     0.1259    57.9995 </r>
       <r>    12.2921     0.0041    58.0000 </r>
       <r>    12.4027     0.0000    58.0000 </r>
       <r>    12.5134     0.0000    58.0000 </r>
       <r>    12.6240     0.0000    58.0000 </r>
       <r>    12.7346     0.0000    58.0000 </r>
       <r>    12.8453     0.0000    58.0000 </r>
       <r>    12.9559     0.0000    58.0000 </r>
       <r>    13.0665     0.0000    58.0000 </r>
       <r>    13.1772     0.0000    58.0000 </r>
       <r>    13.2878     0.0000    58.0000 </r>
       <r>    13.3984     0.0000    58.0000 </r>
       <r>    13.5091     0.0000    58.0000 </r>
      </set>
     </set>
    </array>
   </total>
  </dos>
 </calculation>
 <structure name="finalpos" >
  <crystal>
   <varray name="basis" >
    <v>       4.87342988       0.00000000       0.00000000 </v>
    <v>      -2.43671494       4.22051408       0.00000000 </v>
    <v>       0.00000000       0.00000000       5.37418982 </v>
   </varray>
   <i name="volume">    110.53837516 </i>
   <varray name="rec_basis" >
    <v>       0.20519429       0.11846898      -0.00000000 </v>
    <v>       0.00000000       0.23693796       0.00000000 </v>
    <v>       0.00000000      -0.00000000       0.18607456 </v>
   </varray>
  </crystal>
  <varray name="positions" >
   <v>       0.46477200       0.99999999       0.66666667 </v>
   <v>       0.00008255       0.46467970       0.33338126 </v>
   <v>       0.53540285       0.53532029       0.99995207 </v>
   <v>       0.13548395       0.72414042       0.55412687 </v>
   <v>       0.27602872       0.41160111       0.22074259 </v>
   <v>       0.58842856       0.86459273       0.88769686 </v>
   <v>       0.41134352       0.27585959       0.77920644 </v>
   <v>       0.86442760       0.58839890       0.11259076 </v>
   <v>       0.72383582       0.13540728       0.44563648 </v>
  </varray>
 </structure>
</modeling>
