<?xml version="1.0" encoding="ISO-8859-1"?>
<modeling>
 <generator>
  <i name="program" type="string">vasp </i>
  <i name="version" type="string">6.4.1  </i>
  <i name="subversion" type="string">05Apr23 (build Sep  6 2023 20:49:31) complex                          parallel </i>
  <i name="platform" type="string">LinuxNV </i>
  <i name="date" type="string">2023 10 19 </i>
  <i name="time" type="string">14:07:59 </i>
 </generator>
 <incar>
  <i type="string" name="PREC">Accurate</i>
  <i type="string" name="ALGO">Fast</i>
  <i name="EDIFF">      0.00000001</i>
  <i name="ENCUT">    500.00000000</i>
  <i type="int" name="ISMEAR">     0</i>
  <i name="SIGMA">      0.10000000</i>
  <i type="logical" name="LEPSILON"> T  </i>
 </incar>
 <primitive_cell>
  <structure name="primitive_cell" >
   <crystal>
    <varray name="basis" >
     <v>       4.87342988       0.00000000       0.00000000 </v>
     <v>      -2.43671494       4.22051408       0.00000000 </v>
     <v>       0.00000000       0.00000000       5.37418982 </v>
    </varray>
    <i name="volume">    110.53837516 </i>
    <varray name="rec_basis" >
     <v>       0.20519429       0.11846898      -0.00000000 </v>
     <v>       0.00000000       0.23693796       0.00000000 </v>
     <v>       0.00000000      -0.00000000       0.18607456 </v>
    </varray>
   </crystal>
   <varray name="positions" >
    <v>       0.46479986       0.00023382       0.66661050 </v>
    <v>       0.99976618       0.46456604       0.33327717 </v>
    <v>       0.53543396       0.53520014       0.99994383 </v>
    <v>       0.13544637       0.72397782       0.55423807 </v>
    <v>       0.27602218       0.41146855       0.22090474 </v>
    <v>       0.58853145       0.86455363       0.88757141 </v>
    <v>       0.41154217       0.27601279       0.77919386 </v>
    <v>       0.86447063       0.58845783       0.11252719 </v>
    <v>       0.72398721       0.13552937       0.44586053 </v>
   </varray>
  </structure>
  <varray name="primitive_index" >
   <v type="int" >        1 </v>
   <v type="int" >        2 </v>
   <v type="int" >        3 </v>
   <v type="int" >        4 </v>
   <v type="int" >        5 </v>
   <v type="int" >        6 </v>
   <v type="int" >        7 </v>
   <v type="int" >        8 </v>
   <v type="int" >        9 </v>
  </varray>
 </primitive_cell>
 <kpoints>
  <generation param="Gamma">
   <v type="int" name="divisions">       4        4        4 </v>
   <v name="usershift">      0.00000000       0.00000000       0.00000000 </v>
   <v name="genvec1">      0.25000000       0.00000000       0.00000000 </v>
   <v name="genvec2">      0.00000000       0.25000000       0.00000000 </v>
   <v name="genvec3">      0.00000000       0.00000000       0.25000000 </v>
   <v name="shift">      0.00000000       0.00000000       0.00000000 </v>
  </generation>
  <varray name="kpointlist" >
   <v>       0.00000000       0.00000000       0.00000000 </v>
   <v>       0.25000000       0.00000000       0.00000000 </v>
   <v>       0.50000000       0.00000000       0.00000000 </v>
   <v>       0.25000000       0.25000000       0.00000000 </v>
   <v>       0.00000000       0.00000000       0.25000000 </v>
   <v>       0.25000000       0.00000000       0.25000000 </v>
   <v>       0.00000000       0.25000000       0.25000000 </v>
   <v>       0.50000000       0.00000000       0.25000000 </v>
   <v>       0.25000000       0.25000000       0.25000000 </v>
   <v>      -0.25000000       0.50000000       0.25000000 </v>
   <v>       0.00000000       0.00000000       0.50000000 </v>
   <v>       0.25000000       0.00000000       0.50000000 </v>
   <v>       0.50000000       0.00000000       0.50000000 </v>
   <v>       0.25000000       0.25000000       0.50000000 </v>
  </varray>
  <varray name="weights" >
   <v>       0.01562500 </v>
   <v>       0.09375000 </v>
   <v>       0.04687500 </v>
   <v>       0.09375000 </v>
   <v>       0.03125000 </v>
   <v>       0.09375000 </v>
   <v>       0.09375000 </v>
   <v>       0.09375000 </v>
   <v>       0.09375000 </v>
   <v>       0.09375000 </v>
   <v>       0.01562500 </v>
   <v>       0.09375000 </v>
   <v>       0.04687500 </v>
   <v>       0.09375000 </v>
  </varray>
 </kpoints>
 <parameters>
  <separator name="general" >
   <i type="string" name="SYSTEM">unknown system</i>
   <i type="logical" name="LCOMPAT"> F  </i>
  </separator>
  <separator name="electronic" >
   <i type="string" name="PREC">accura</i>
   <i name="ENMAX">    500.00000000</i>
   <i name="ENAUG">    605.39200000</i>
   <i name="EDIFF">      0.00000001</i>
   <i type="int" name="IALGO">    68</i>
   <i type="int" name="IWAVPR">    10</i>
   <i type="int" name="NBANDS">    29</i>
   <i type="int" name="NBANDSLOW">    -1</i>
   <i type="int" name="NBANDSHIGH">    -1</i>
   <i name="NELECT">     48.00000000</i>
   <i type="int" name="TURBO">     0</i>
   <i type="int" name="IRESTART">     0</i>
   <i type="int" name="NREBOOT">     0</i>
   <i type="int" name="NMIN">     0</i>
   <i name="EREF">      0.00000000</i>
   <separator name="electronic smearing" >
    <i type="int" name="ISMEAR">     0</i>
    <i name="SIGMA">      0.10000000</i>
    <i name="KSPACING">      0.50000000</i>
    <i type="logical" name="KGAMMA"> T  </i>
    <i type="logical" name="KBLOWUP"> T  </i>
   </separator>
   <separator name="electronic projectors" >
    <i type="logical" name="LREAL"> F  </i>
    <v name="ROPT">      0.00000000      0.00000000</v>
    <i type="int" name="LMAXPAW">  -100</i>
    <i type="int" name="LMAXMIX">     2</i>
    <i type="logical" name="NLSPLINE"> F  </i>
   </separator>
   <separator name="electronic startup" >
    <i type="int" name="ISTART">     0</i>
    <i type="int" name="ICHARG">     2</i>
    <i type="int" name="INIWAV">     1</i>
   </separator>
   <separator name="electronic spin" >
    <i type="int" name="ISPIN">     1</i>
    <i type="logical" name="LNONCOLLINEAR"> F  </i>
    <v name="MAGMOM">      1.00000000      1.00000000      1.00000000      1.00000000      1.00000000      1.00000000      1.00000000      1.00000000      1.00000000</v>
    <i name="NUPDOWN">     -1.00000000</i>
    <i type="logical" name="LSORBIT"> F  </i>
    <v name="SAXIS">      0.00000000      0.00000000      1.00000000</v>
    <i type="logical" name="LSPIRAL"> F  </i>
    <v name="QSPIRAL">      0.00000000      0.00000000      0.00000000</v>
    <i type="logical" name="LZEROZ"> F  </i>
   </separator>
   <separator name="electronic exchange-correlation" >
    <i type="logical" name="LASPH"> F  </i>
    <i type="logical" name="LMETAGGA"> F  </i>
   </separator>
   <separator name="electronic convergence" >
    <i type="int" name="NELM">    60</i>
    <i type="int" name="NELMDL">    -5</i>
    <i type="int" name="NELMIN">     2</i>
    <i name="ENINI">    500.00000000</i>
    <separator name="electronic convergence detail" >
     <i type="logical" name="LDIAG"> T  </i>
     <i type="logical" name="LSUBROT"> F  </i>
     <i name="WEIMIN">      0.00000000</i>
     <i name="EBREAK">      0.00000000</i>
     <i name="DEPER">      0.30000000</i>
     <i type="int" name="NRMM">     4</i>
     <i name="TIME">      0.40000000</i>
    </separator>
   </separator>
   <separator name="electronic mixer" >
    <i name="AMIX">      0.40000000</i>
    <i name="BMIX">      1.00000000</i>
    <i name="AMIN">      0.10000000</i>
    <i name="AMIX_MAG">      1.60000000</i>
    <i name="BMIX_MAG">      1.00000000</i>
    <separator name="electronic mixer details" >
     <i type="int" name="IMIX">     4</i>
     <i type="logical" name="MIXFIRST"> F  </i>
     <i type="int" name="MAXMIX">   -45</i>
     <i name="WC">    100.00000000</i>
     <i type="int" name="INIMIX">     1</i>
     <i type="int" name="MIXPRE">     1</i>
     <i type="int" name="MREMOVE">     5</i>
    </separator>
   </separator>
   <separator name="electronic dipolcorrection" >
    <i type="logical" name="LDIPOL"> F  </i>
    <i type="logical" name="LMONO"> F  </i>
    <i type="int" name="IDIPOL">     0</i>
    <i name="EPSILON">      1.00000000</i>
    <v name="DIPOL">   -100.00000000   -100.00000000   -100.00000000</v>
    <i name="EFIELD">      0.00000000</i>
   </separator>
  </separator>
  <separator name="grids" >
   <i type="int" name="NGX">    36</i>
   <i type="int" name="NGY">    36</i>
   <i type="int" name="NGZ">    40</i>
   <i type="int" name="NGXF">    72</i>
   <i type="int" name="NGYF">    72</i>
   <i type="int" name="NGZF">    80</i>
   <i type="logical" name="ADDGRID"> F  </i>
  </separator>
  <separator name="ionic" >
   <i type="int" name="NSW">     0</i>
   <i type="int" name="IBRION">    -1</i>
   <i type="int" name="MDALGO">     0</i>
   <i type="int" name="ISIF">     2</i>
   <i name="PSTRESS">      0.00000000</i>
   <i name="EDIFFG">      0.00000010</i>
   <i type="int" name="NFREE">     0</i>
   <i name="POTIM">      0.50000000</i>
   <i name="SMASS">     -3.00000000</i>
   <i name="SCALEE">      1.00000000</i>
  </separator>
  <separator name="ionic md" >
   <i name="TEBEG">      0.00010000</i>
   <i name="TEEND">      0.00010000</i>
   <i type="int" name="NBLOCK">     1</i>
   <i type="int" name="KBLOCK">     1</i>
   <i type="int" name="NPACO">   256</i>
   <i name="APACO">     10.00000000</i>
  </separator>
  <separator name="symmetry" >
   <i type="int" name="ISYM">     2</i>
   <i name="SYMPREC">      0.00001000</i>
  </separator>
  <separator name="dos" >
   <i type="int" name="LORBIT">     0</i>
   <v name="RWIGS">     -1.00000000     -1.00000000</v>
   <i type="int" name="NEDOS">   301</i>
   <i name="EMIN">     10.00000000</i>
   <i name="EMAX">    -10.00000000</i>
   <i name="EFERMI">      0.00000000</i>
  </separator>
  <separator name="writing" >
   <i type="int" name="NWRITE">     2</i>
   <i type="logical" name="LWAVE"> T  </i>
   <i type="logical" name="LDOWNSAMPLE"> F  </i>
   <i type="logical" name="LCHARG"> T  </i>
   <i type="logical" name="LPARD"> F  </i>
   <i type="logical" name="LVTOT"> F  </i>
   <i type="logical" name="LVHAR"> F  </i>
   <i type="logical" name="LELF"> F  </i>
   <i type="logical" name="LOPTICS"> F  </i>
   <v name="STM">      0.00000000      0.00000000      0.00000000      0.00000000      0.00000000      0.00000000      0.00000000</v>
  </separator>
  <separator name="performance" >
   <i type="int" name="NPAR">     1</i>
   <i type="int" name="NSIM">     4</i>
   <i type="int" name="NBLK">    -1</i>
   <i type="logical" name="LPLANE"> T  </i>
   <i type="logical" name="LSCALAPACK"> T  </i>
   <i type="logical" name="LSCAAWARE"> F  </i>
   <i type="logical" name="LSCALU"> F  </i>
   <i type="logical" name="LASYNC"> F  </i>
   <i type="logical" name="LORBITALREAL"> F  </i>
  </separator>
  <separator name="miscellaneous" >
   <i type="int" name="IDIOT">     3</i>
   <i type="int" name="PHON_NSTRUCT">    -1</i>
   <i type="logical" name="LMUSIC"> F  </i>
   <v name="POMASS">     28.08500000     16.00000000</v>
   <v name="DARWINR">      0.00000000      0.00000000</v>
   <v name="DARWINV">      1.00000000      1.00000000</v>
   <i type="logical" name="LCORR"> T  </i>
  </separator>
  <i type="logical" name="GGA_COMPAT"> T  </i>
  <i type="logical" name="LBERRY"> F  </i>
  <i type="int" name="ICORELEVEL">     0</i>
  <i type="logical" name="LDAU"> F  </i>
  <i type="int" name="I_CONSTRAINED_M">     0</i>
  <separator name="electronic exchange-correlation" >
   <i type="string" name="GGA">--</i>
   <i type="int" name="VOSKOWN">     0</i>
   <i type="logical" name="LHFCALC"> F  </i>
   <i type="string" name="PRECFOCK"></i>
   <i type="logical" name="LSYMGRAD"> F  </i>
   <i type="logical" name="LHFONE"> F  </i>
   <i type="logical" name="LRHFCALC"> F  </i>
   <i type="logical" name="LTHOMAS"> F  </i>
   <i type="logical" name="LMODELHF"> F  </i>
   <i type="logical" name="LFOCKACE"> F  </i>
   <i name="ENCUT4O">     -1.00000000</i>
   <i type="int" name="EXXOEP">     0</i>
   <i type="int" name="FOURORBIT">     0</i>
   <i name="AEXX">      0.00000000</i>
   <i name="HFALPHA">      0.00000000</i>
   <i name="MCALPHA">      0.00000000</i>
   <i name="ALDAX">      1.00000000</i>
   <i name="AGGAX">      1.00000000</i>
   <i name="ALDAC">      1.00000000</i>
   <i name="AGGAC">      1.00000000</i>
   <i type="int" name="NKREDX">     1</i>
   <i type="int" name="NKREDY">     1</i>
   <i type="int" name="NKREDZ">     1</i>
   <i type="logical" name="SHIFTRED"> F  </i>
   <i type="logical" name="ODDONLY"> F  </i>
   <i type="logical" name="EVENONLY"> F  </i>
   <i type="int" name="LMAXFOCK">     0</i>
   <i type="int" name="NMAXFOCKAE">     0</i>
   <i type="logical" name="LFOCKAEDFT"> F  </i>
   <i name="HFSCREEN">      0.00000000</i>
   <i name="HFSCREENC">      0.00000000</i>
   <i type="int" name="NBANDSGWLOW">     0</i>
  </separator>
  <separator name="vdW DFT" >
   <i type="logical" name="LUSE_VDW"> F  </i>
   <i type="int" name="IVDW_NL">     1</i>
   <i type="logical" name="LSPIN_VDW"> F  </i>
   <i name="Zab_VDW">     -0.84910000</i>
   <i name="PARAM1">      0.12340000</i>
   <i name="PARAM2">      1.00000000</i>
   <i name="PARAM3">      0.00000000</i>
  </separator>
  <separator name="model GW" >
   <i type="int" name="MODEL_GW">     0</i>
   <i name="MODEL_EPS0">      7.36922501</i>
   <i name="MODEL_ALPHA">      1.00000000</i>
  </separator>
  <separator name="linear response parameters" >
   <i type="logical" name="LEPSILON"> T  </i>
   <i type="logical" name="LRPA"> F  </i>
   <i type="logical" name="LNABLA"> F  </i>
   <i type="logical" name="LVEL"> F  </i>
   <i name="CSHIFT">      0.10000000</i>
   <i name="OMEGAMAX">     -1.00000000</i>
   <i name="DEG_THRESHOLD">      0.00200000</i>
   <i name="RTIME">     -0.10000000</i>
   <i name="WPLASMAI">      0.00000000</i>
   <v name="DFIELD">      0.00000000      0.00000000      0.00000000</v>
   <v name="WPLASMA">      0.00000000      0.00000000      0.00000000      0.00000000      0.00000000      0.00000000      0.00000000      0.00000000      0.00000000</v>
  </separator>
  <separator name="orbital magnetization" >
   <i type="logical" name="NUCIND"> F  </i>
   <v name="MAGPOS">      0.00000000      0.00000000      0.00000000</v>
   <i type="logical" name="LNICSALL"> T  </i>
   <i type="logical" name="ORBITALMAG"> F  </i>
   <i type="logical" name="LMAGBLOCH"> F  </i>
   <i type="logical" name="LCHIMAG"> F  </i>
   <i type="logical" name="LGAUGE"> T  </i>
   <i type="int" name="MAGATOM">     0</i>
   <v name="MAGDIPOL">      0.00000000      0.00000000      0.00000000</v>
   <v name="AVECCONST">      0.00000000      0.00000000      0.00000000</v>
  </separator>
  <separator name="response functions" >
   <i type="logical" name="LALL_IN_ONE"> F  </i>
   <i type="int" name="IALL_IN_ONE">    -1</i>
   <i type="int" name="NBANDS_WAVE">    -1</i>
   <i type="logical" name="LFINITE_TEMPERATURE"> F  </i>
   <i type="logical" name="LADDER"> F  </i>
   <i type="logical" name="LRPAFORCE"> F  </i>
   <i type="logical" name="LFXC"> F  </i>
   <i type="logical" name="LHARTREE"> T  </i>
   <i type="int" name="IBSE">     0</i>
   <v type="int" name="KPOINT">    -1     0     0     0</v>
   <i type="logical" name="LTCTC"> F  </i>
   <i type="logical" name="LTCTE"> F  </i>
   <i type="logical" name="LTETE"> F  </i>
   <i type="logical" name="LTRIPLET"> F  </i>
   <i type="logical" name="LFXCEPS"> F  </i>
   <i type="logical" name="LFXHEG"> F  </i>
   <i type="int" name="NATURALO">     2</i>
   <i type="logical" name="LHOLEGF"> F  </i>
   <i type="logical" name="L2ORDER"> F  </i>
   <i type="logical" name="LDMP1"> F  </i>
   <i type="logical" name="LMP2LT"> F  </i>
   <i type="logical" name="LSMP2LT"> F  </i>
   <i type="logical" name="LGWLF"> F  </i>
   <i name="ENCUTGW">     -1.60000002</i>
   <i name="ENCUTGWSOFT">     -1.60000002</i>
   <i name="ENCUTLF">     -1.00000000</i>
   <i type="logical" name="LESF_SPLINES"> F  </i>
   <i type="int" name="LMAXMP2">    -1</i>
   <i name="SCISSOR">      0.00000000</i>
   <i type="int" name="NOMEGA">     0</i>
   <i type="int" name="NOMEGAR">     0</i>
   <i type="int" name="NBANDSGW">    -1</i>
   <i type="int" name="NBANDSO">    -1</i>
   <i type="int" name="NBANDSV">    -1</i>
   <i type="int" name="NELMGW">     1</i>
   <i type="int" name="NELMHF">     1</i>
   <i type="int" name="DIM">     3</i>
   <i type="int" name="IESPILON">     4</i>
   <i type="int" name="ANTIRES">     0</i>
   <i name="OMEGAMAX">    -30.00000000</i>
   <i name="OMEGAMIN">    -30.00000000</i>
   <i name="OMEGATL">   -200.00000000</i>
   <i type="int" name="OMEGAGRID">     0</i>
   <i name="CSHIFT">     -0.10000000</i>
   <i type="logical" name="LSELFENERGY"> F  </i>
   <i type="logical" name="LSPECTRAL"> F  </i>
   <i type="logical" name="LSPECTRALGW"> F  </i>
   <i type="logical" name="LSINGLES"> F  </i>
   <i type="logical" name="LFERMIGW"> F  </i>
   <i type="logical" name="ODDONLYGW"> F  </i>
   <i type="logical" name="EVENONLYGW"> F  </i>
   <i type="int" name="NKREDLFX">     1</i>
   <i type="int" name="NKREDLFY">     1</i>
   <i type="int" name="NKREDLFZ">     1</i>
   <i type="int" name="MAXMEM">  2800</i>
   <i type="int" name="TELESCOPE">     0</i>
   <i type="int" name="NTAUPAR">    -1</i>
   <i type="int" name="NOMEGAPAR">    -1</i>
   <i name="DAMP_NEWTON">      0.80000001</i>
   <i name="LAMBDA">      1.00000000</i>
  </separator>
  <separator name="External order field" >
   <i name="OFIELD_KAPPA">      0.00000000</i>
   <v name="OFIELD_K">      0.00000000      0.00000000      0.00000000</v>
   <i name="OFIELD_Q6_NEAR">      0.00000000</i>
   <i name="OFIELD_Q6_FAR">      0.00000000</i>
   <i name="OFIELD_A">      0.00000000</i>
  </separator>
  <separator name="optional k-points parameters" >
   <i type="int" name="KPOINTS_OPT_MODE">     1</i>
   <i type="logical" name="LKPOINTS_OPT"> F  </i>
  </separator>
 </parameters>
 <atominfo>
  <atoms>       9 </atoms>
  <types>       2 </types>
  <array name="atoms" >
   <dimension dim="1">ion</dimension>
   <field type="string">element</field>
   <field type="int">atomtype</field>
   <set>
    <rc><c>Si</c><c>   1</c></rc>
    <rc><c>Si</c><c>   1</c></rc>
    <rc><c>Si</c><c>   1</c></rc>
    <rc><c>O </c><c>   2</c></rc>
    <rc><c>O </c><c>   2</c></rc>
    <rc><c>O </c><c>   2</c></rc>
    <rc><c>O </c><c>   2</c></rc>
    <rc><c>O </c><c>   2</c></rc>
    <rc><c>O </c><c>   2</c></rc>
   </set>
  </array>
  <array name="atomtypes" >
   <dimension dim="1">type</dimension>
   <field type="int">atomspertype</field>
   <field type="string">element</field>
   <field>mass</field>
   <field>valence</field>
   <field type="string">pseudopotential</field>
   <set>
    <rc><c>   3</c><c>Si</c><c>     28.08500000</c><c>      4.00000000</c><c>  PAW_PBE Si 05Jan2001                  </c></rc>
    <rc><c>   6</c><c>O </c><c>     16.00000000</c><c>      6.00000000</c><c>  PAW_PBE O 08Apr2002                   </c></rc>
   </set>
  </array>
 </atominfo>
 <structure name="initialpos" >
  <crystal>
   <varray name="basis" >
    <v>       4.87342988       0.00000000       0.00000000 </v>
    <v>      -2.43671494       4.22051408       0.00000000 </v>
    <v>       0.00000000       0.00000000       5.37418982 </v>
   </varray>
   <i name="volume">    110.53837516 </i>
   <varray name="rec_basis" >
    <v>       0.20519429       0.11846898      -0.00000000 </v>
    <v>       0.00000000       0.23693796       0.00000000 </v>
    <v>       0.00000000      -0.00000000       0.18607456 </v>
   </varray>
  </crystal>
  <varray name="positions" >
   <v>       0.46479986       0.00023382       0.66661050 </v>
   <v>       0.99976618       0.46456604       0.33327717 </v>
   <v>       0.53543396       0.53520014       0.99994383 </v>
   <v>       0.13544637       0.72397782       0.55423807 </v>
   <v>       0.27602218       0.41146855       0.22090474 </v>
   <v>       0.58853145       0.86455363       0.88757141 </v>
   <v>       0.41154217       0.27601279       0.77919386 </v>
   <v>       0.86447063       0.58845783       0.11252719 </v>
   <v>       0.72398721       0.13552937       0.44586053 </v>
  </varray>
 </structure>
 <calculation>
  <scstep>
   <time name="dav">    0.52    0.51</time>
   <time name="total">    0.55    0.53</time>
   <energy>
    <i name="alphaZ">     71.30271804 </i>
    <i name="ewald">  -1930.19378388 </i>
    <i name="hartreedc">   -909.39713628 </i>
    <i name="XCdc">    141.70969773 </i>
    <i name="pawpsdc">   2343.66826019 </i>
    <i name="pawaedc">  -2301.68043871 </i>
    <i name="eentropy">     -0.00954959 </i>
    <i name="bandstr">    -15.81789337 </i>
    <i name="atom">   2903.33737771 </i>
    <i name="e_fr_energy">    302.91925184 </i>
    <i name="e_wo_entrp">    302.92880143 </i>
    <i name="e_0_energy">    302.92402663 </i>
   </energy>
  </scstep>
  <scstep>
   <time name="dav">    0.49    0.49</time>
   <time name="total">    0.49    0.49</time>
   <energy>
    <i name="e_fr_energy">    -60.95138701 </i>
    <i name="e_wo_entrp">    -60.95138701 </i>
    <i name="e_0_energy">    -60.95138701 </i>
   </energy>
  </scstep>
  <scstep>
   <time name="dav">    0.45    0.45</time>
   <time name="total">    0.45    0.45</time>
   <energy>
    <i name="e_fr_energy">    -80.16833362 </i>
    <i name="e_wo_entrp">    -80.16833362 </i>
    <i name="e_0_energy">    -80.16833362 </i>
   </energy>
  </scstep>
  <scstep>
   <time name="dav">    0.45    0.45</time>
   <time name="total">    0.45    0.45</time>
   <energy>
    <i name="e_fr_energy">    -80.41810476 </i>
    <i name="e_wo_entrp">    -80.41810476 </i>
    <i name="e_0_energy">    -80.41810476 </i>
   </energy>
  </scstep>
  <scstep>
   <time name="dav">    0.45    0.45</time>
   <time name="total">    0.54    0.51</time>
   <energy>
    <i name="e_fr_energy">    -80.42322674 </i>
    <i name="e_wo_entrp">    -80.42322674 </i>
    <i name="e_0_energy">    -80.42322674 </i>
   </energy>
  </scstep>
  <scstep>
   <time name="diag">    0.05    0.05</time>
   <time name="diis">    0.51    0.51</time>
   <time name="orth">    0.00    0.00</time>
   <time name="total">    0.68    0.63</time>
   <energy>
    <i name="e_fr_energy">    -70.67404013 </i>
    <i name="e_wo_entrp">    -70.67404013 </i>
    <i name="e_0_energy">    -70.67404013 </i>
   </energy>
  </scstep>
  <scstep>
   <time name="diag">    0.05    0.05</time>
   <time name="diis">    0.56    0.56</time>
   <time name="orth">    0.00    0.00</time>
   <time name="total">    0.74    0.69</time>
   <energy>
    <i name="e_fr_energy">    -70.97659500 </i>
    <i name="e_wo_entrp">    -70.97659500 </i>
    <i name="e_0_energy">    -70.97659500 </i>
   </energy>
  </scstep>
  <scstep>
   <time name="diag">    0.05    0.05</time>
   <time name="diis">    0.56    0.56</time>
   <time name="orth">    0.00    0.00</time>
   <time name="total">    0.74    0.68</time>
   <energy>
    <i name="e_fr_energy">    -70.96834917 </i>
    <i name="e_wo_entrp">    -70.96834917 </i>
    <i name="e_0_energy">    -70.96834917 </i>
   </energy>
  </scstep>
  <scstep>
   <time name="diag">    0.05    0.05</time>
   <time name="diis">    0.57    0.58</time>
   <time name="orth">    0.00    0.00</time>
   <time name="total">    0.75    0.70</time>
   <energy>
    <i name="e_fr_energy">    -70.98739549 </i>
    <i name="e_wo_entrp">    -70.98739549 </i>
    <i name="e_0_energy">    -70.98739549 </i>
   </energy>
  </scstep>
  <scstep>
   <time name="diag">    0.05    0.05</time>
   <time name="diis">    0.57    0.58</time>
   <time name="orth">    0.00    0.00</time>
   <time name="total">    0.75    0.70</time>
   <energy>
    <i name="e_fr_energy">    -70.99269498 </i>
    <i name="e_wo_entrp">    -70.99269498 </i>
    <i name="e_0_energy">    -70.99269498 </i>
   </energy>
  </scstep>
  <scstep>
   <time name="diag">    0.05    0.05</time>
   <time name="diis">    0.57    0.57</time>
   <time name="orth">    0.00    0.00</time>
   <time name="total">    0.75    0.69</time>
   <energy>
    <i name="e_fr_energy">    -70.98880403 </i>
    <i name="e_wo_entrp">    -70.98880403 </i>
    <i name="e_0_energy">    -70.98880403 </i>
   </energy>
  </scstep>
  <scstep>
   <time name="diag">    0.05    0.05</time>
   <time name="diis">    0.57    0.58</time>
   <time name="orth">    0.00    0.00</time>
   <time name="total">    0.77    0.70</time>
   <energy>
    <i name="e_fr_energy">    -70.98940471 </i>
    <i name="e_wo_entrp">    -70.98940471 </i>
    <i name="e_0_energy">    -70.98940471 </i>
   </energy>
  </scstep>
  <scstep>
   <time name="diag">    0.05    0.05</time>
   <time name="diis">    0.61    0.61</time>
   <time name="orth">    0.00    0.00</time>
   <time name="total">    0.78    0.73</time>
   <energy>
    <i name="e_fr_energy">    -70.98916486 </i>
    <i name="e_wo_entrp">    -70.98916486 </i>
    <i name="e_0_energy">    -70.98916486 </i>
   </energy>
  </scstep>
  <scstep>
   <time name="diag">    0.05    0.05</time>
   <time name="diis">    0.58    0.58</time>
   <time name="orth">    0.00    0.00</time>
   <time name="total">    0.76    0.71</time>
   <energy>
    <i name="e_fr_energy">    -70.98912358 </i>
    <i name="e_wo_entrp">    -70.98912358 </i>
    <i name="e_0_energy">    -70.98912358 </i>
   </energy>
  </scstep>
  <scstep>
   <time name="diag">    0.05    0.05</time>
   <time name="diis">    0.63    0.63</time>
   <time name="orth">    0.00    0.00</time>
   <time name="total">    0.81    0.76</time>
   <energy>
    <i name="e_fr_energy">    -70.98912085 </i>
    <i name="e_wo_entrp">    -70.98912085 </i>
    <i name="e_0_energy">    -70.98912085 </i>
   </energy>
  </scstep>
  <scstep>
   <time name="diag">    0.05    0.05</time>
   <time name="diis">    0.58    0.58</time>
   <time name="orth">    0.00    0.00</time>
   <time name="total">    0.75    0.70</time>
   <energy>
    <i name="e_fr_energy">    -70.98911949 </i>
    <i name="e_wo_entrp">    -70.98911949 </i>
    <i name="e_0_energy">    -70.98911949 </i>
   </energy>
  </scstep>
  <scstep>
   <time name="diag">    0.05    0.05</time>
   <time name="diis">    0.57    0.57</time>
   <time name="orth">    0.00    0.00</time>
   <time name="total">    0.75    0.70</time>
   <energy>
    <i name="e_fr_energy">    -70.98911971 </i>
    <i name="e_wo_entrp">    -70.98911971 </i>
    <i name="e_0_energy">    -70.98911971 </i>
   </energy>
  </scstep>
  <scstep>
   <time name="diag">    0.05    0.05</time>
   <time name="diis">    0.61    0.61</time>
   <time name="orth">    0.00    0.00</time>
   <time name="total">    0.79    0.73</time>
   <energy>
    <i name="e_fr_energy">    -70.98911991 </i>
    <i name="e_wo_entrp">    -70.98911991 </i>
    <i name="e_0_energy">    -70.98911991 </i>
   </energy>
  </scstep>
  <scstep>
   <time name="diag">    0.05    0.05</time>
   <time name="diis">    0.57    0.58</time>
   <time name="orth">    0.00    0.00</time>
   <time name="total">    0.75    0.70</time>
   <energy>
    <i name="e_fr_energy">    -70.98911987 </i>
    <i name="e_wo_entrp">    -70.98911987 </i>
    <i name="e_0_energy">    -70.98911987 </i>
   </energy>
  </scstep>
  <scstep>
   <time name="diag">    0.05    0.05</time>
   <time name="diis">    0.58    0.58</time>
   <time name="orth">    0.00    0.00</time>
   <time name="total">    0.75    0.70</time>
   <energy>
    <i name="e_fr_energy">    -70.98911991 </i>
    <i name="e_wo_entrp">    -70.98911991 </i>
    <i name="e_0_energy">    -70.98911991 </i>
   </energy>
  </scstep>
  <scstep>
   <time name="diag">    0.05    0.05</time>
   <time name="diis">    0.39    0.39</time>
   <time name="orth">    0.00    0.00</time>
   <time name="total">    0.56    0.51</time>
   <energy>
    <i name="e_fr_energy">    -70.98911988 </i>
    <i name="e_wo_entrp">    -70.98911988 </i>
    <i name="e_0_energy">    -70.98911988 </i>
   </energy>
  </scstep>
  <scstep>
   <time name="diag">    0.05    0.05</time>
   <time name="diis">    0.38    0.38</time>
   <time name="orth">    0.00    0.00</time>
   <time name="total">    0.46    0.44</time>
   <energy>
    <i name="alphaZ">     71.30271804 </i>
    <i name="ewald">  -1930.19378388 </i>
    <i name="hartreedc">  -1040.55657976 </i>
    <i name="XCdc">    150.68542794 </i>
    <i name="pawpsdc">   8045.46969986 </i>
    <i name="pawaedc">  -8005.84749944 </i>
    <i name="eentropy">     -0.00000000 </i>
    <i name="bandstr">   -265.18648034 </i>
    <i name="atom">   2903.33737771 </i>
    <i name="e_fr_energy">    -70.98911988 </i>
    <i name="e_wo_entrp">    -70.98911988 </i>
    <i name="e_0_energy">    -70.98911988 </i>
   </energy>
  </scstep>
  <structure>
   <crystal>
    <varray name="basis" >
     <v>       4.87342988       0.00000000       0.00000000 </v>
     <v>      -2.43671494       4.22051408       0.00000000 </v>
     <v>       0.00000000       0.00000000       5.37418982 </v>
    </varray>
    <i name="volume">    110.53837516 </i>
    <varray name="rec_basis" >
     <v>       0.20519429       0.11846898      -0.00000000 </v>
     <v>       0.00000000       0.23693796       0.00000000 </v>
     <v>       0.00000000      -0.00000000       0.18607456 </v>
    </varray>
   </crystal>
   <varray name="positions" >
    <v>       0.46479986       0.00023382       0.66661050 </v>
    <v>       0.99976618       0.46456604       0.33327717 </v>
    <v>       0.53543396       0.53520014       0.99994383 </v>
    <v>       0.13544637       0.72397782       0.55423807 </v>
    <v>       0.27602218       0.41146855       0.22090474 </v>
    <v>       0.58853145       0.86455363       0.88757141 </v>
    <v>       0.41154217       0.27601279       0.77919386 </v>
    <v>       0.86447063       0.58845783       0.11252719 </v>
    <v>       0.72398721       0.13552937       0.44586053 </v>
   </varray>
  </structure>
  <varray name="forces" >
   <v>       0.01810709      -0.06155632       0.01883037 </v>
   <v>       0.04425579       0.04645936       0.01883037 </v>
   <v>      -0.06236288       0.01509696       0.01883037 </v>
   <v>      -0.26845813      -0.00038037       0.14398717 </v>
   <v>       0.13455847      -0.23230137       0.14398717 </v>
   <v>       0.13389966       0.23268174       0.14398717 </v>
   <v>      -0.28202902       0.00178576      -0.16281754 </v>
   <v>       0.14256102       0.24335142      -0.16281754 </v>
   <v>       0.13946800      -0.24513718      -0.16281754 </v>
  </varray>
  <varray name="stress" >
   <v>      71.97605152       0.00000102       0.00000000 </v>
   <v>      -0.00000102      71.97605152       0.00000000 </v>
   <v>       0.00000000       0.00000000      73.63009313 </v>
  </varray>
  <energy>
   <i name="e_fr_energy">    -70.98911988 </i>
   <i name="e_wo_entrp">    -70.98911988 </i>
   <i name="e_0_energy">    -70.98911988 </i>
  </energy>
  <scstep>
   <time name="total">    7.22    1.54</time>
   <energy>
    <i name="e_fr_energy">   -182.67786476 </i>
    <i name="e_wo_entrp">   -182.67786476 </i>
    <i name="e_0_energy">   -182.67786476 </i>
   </energy>
  </scstep>
  <scstep>
   <time name="total">    6.99    1.34</time>
   <energy>
    <i name="e_fr_energy">   -172.55171920 </i>
    <i name="e_wo_entrp">   -172.55171920 </i>
    <i name="e_0_energy">   -172.55171920 </i>
   </energy>
  </scstep>
  <scstep>
   <time name="total">    7.24    1.38</time>
   <energy>
    <i name="e_fr_energy">   -172.69840940 </i>
    <i name="e_wo_entrp">   -172.69840940 </i>
    <i name="e_0_energy">   -172.69840940 </i>
   </energy>
  </scstep>
  <scstep>
   <time name="total">    0.55    0.55</time>
   <energy>
    <i name="e_fr_energy">   -172.70582707 </i>
    <i name="e_wo_entrp">   -172.70582707 </i>
    <i name="e_0_energy">   -172.70582707 </i>
   </energy>
  </scstep>
  <scstep>
   <time name="total">    0.55    0.56</time>
   <energy>
    <i name="e_fr_energy">   -172.70599622 </i>
    <i name="e_wo_entrp">   -172.70599622 </i>
    <i name="e_0_energy">   -172.70599622 </i>
   </energy>
  </scstep>
  <scstep>
   <time name="total">    0.56    0.56</time>
   <energy>
    <i name="e_fr_energy">   -172.70600552 </i>
    <i name="e_wo_entrp">   -172.70600552 </i>
    <i name="e_0_energy">   -172.70600552 </i>
   </energy>
  </scstep>
  <scstep>
   <time name="total">    0.56    0.57</time>
   <energy>
    <i name="e_fr_energy">   -172.70600557 </i>
    <i name="e_wo_entrp">   -172.70600557 </i>
    <i name="e_0_energy">   -172.70600557 </i>
   </energy>
  </scstep>
  <scstep>
   <time name="total">    0.56    0.57</time>
   <energy>
    <i name="e_fr_energy">   -172.70600566 </i>
    <i name="e_wo_entrp">   -172.70600566 </i>
    <i name="e_0_energy">   -172.70600566 </i>
   </energy>
  </scstep>
  <scstep>
   <time name="total">    0.56    0.57</time>
   <energy>
    <i name="e_fr_energy">   -172.70600624 </i>
    <i name="e_wo_entrp">   -172.70600624 </i>
    <i name="e_0_energy">   -172.70600624 </i>
   </energy>
  </scstep>
  <scstep>
   <time name="total">    0.57    0.57</time>
   <energy>
    <i name="e_fr_energy">   -172.70600646 </i>
    <i name="e_wo_entrp">   -172.70600646 </i>
    <i name="e_0_energy">   -172.70600646 </i>
   </energy>
  </scstep>
  <scstep>
   <time name="total">    7.15    1.52</time>
   <energy>
    <i name="e_fr_energy">   -181.96997826 </i>
    <i name="e_wo_entrp">   -181.96997826 </i>
    <i name="e_0_energy">   -181.96997826 </i>
   </energy>
  </scstep>
  <scstep>
   <time name="total">    7.17    1.36</time>
   <energy>
    <i name="e_fr_energy">   -172.66658365 </i>
    <i name="e_wo_entrp">   -172.66658365 </i>
    <i name="e_0_energy">   -172.66658365 </i>
   </energy>
  </scstep>
  <scstep>
   <time name="total">    7.05    1.36</time>
   <energy>
    <i name="e_fr_energy">   -172.81089589 </i>
    <i name="e_wo_entrp">   -172.81089589 </i>
    <i name="e_0_energy">   -172.81089589 </i>
   </energy>
  </scstep>
  <scstep>
   <time name="total">    0.55    0.55</time>
   <energy>
    <i name="e_fr_energy">   -172.81827321 </i>
    <i name="e_wo_entrp">   -172.81827321 </i>
    <i name="e_0_energy">   -172.81827321 </i>
   </energy>
  </scstep>
  <scstep>
   <time name="total">    0.55    0.55</time>
   <energy>
    <i name="e_fr_energy">   -172.81846592 </i>
    <i name="e_wo_entrp">   -172.81846592 </i>
    <i name="e_0_energy">   -172.81846592 </i>
   </energy>
  </scstep>
  <scstep>
   <time name="total">    0.55    0.56</time>
   <energy>
    <i name="e_fr_energy">   -172.81847971 </i>
    <i name="e_wo_entrp">   -172.81847971 </i>
    <i name="e_0_energy">   -172.81847971 </i>
   </energy>
  </scstep>
  <scstep>
   <time name="total">    0.56    0.57</time>
   <energy>
    <i name="e_fr_energy">   -172.81848074 </i>
    <i name="e_wo_entrp">   -172.81848074 </i>
    <i name="e_0_energy">   -172.81848074 </i>
   </energy>
  </scstep>
  <scstep>
   <time name="total">    0.57    0.57</time>
   <energy>
    <i name="e_fr_energy">   -172.81848043 </i>
    <i name="e_wo_entrp">   -172.81848043 </i>
    <i name="e_0_energy">   -172.81848043 </i>
   </energy>
  </scstep>
  <scstep>
   <time name="total">    0.57    0.57</time>
   <energy>
    <i name="e_fr_energy">   -172.81847875 </i>
    <i name="e_wo_entrp">   -172.81847875 </i>
    <i name="e_0_energy">   -172.81847875 </i>
   </energy>
  </scstep>
  <scstep>
   <time name="total">    0.57    0.57</time>
   <energy>
    <i name="e_fr_energy">   -172.81847867 </i>
    <i name="e_wo_entrp">   -172.81847867 </i>
    <i name="e_0_energy">   -172.81847867 </i>
   </energy>
  </scstep>
  <scstep>
   <time name="total">    7.23    1.54</time>
   <energy>
    <i name="e_fr_energy">   -182.14369966 </i>
    <i name="e_wo_entrp">   -182.14369966 </i>
    <i name="e_0_energy">   -182.14369966 </i>
   </energy>
  </scstep>
  <scstep>
   <time name="total">    6.99    1.33</time>
   <energy>
    <i name="e_fr_energy">   -172.55632777 </i>
    <i name="e_wo_entrp">   -172.55632777 </i>
    <i name="e_0_energy">   -172.55632777 </i>
   </energy>
  </scstep>
  <scstep>
   <time name="total">    7.04    1.35</time>
   <energy>
    <i name="e_fr_energy">   -172.70914364 </i>
    <i name="e_wo_entrp">   -172.70914364 </i>
    <i name="e_0_energy">   -172.70914364 </i>
   </energy>
  </scstep>
  <scstep>
   <time name="total">    0.55    0.55</time>
   <energy>
    <i name="e_fr_energy">   -172.71655872 </i>
    <i name="e_wo_entrp">   -172.71655872 </i>
    <i name="e_0_energy">   -172.71655872 </i>
   </energy>
  </scstep>
  <scstep>
   <time name="total">    0.55    0.55</time>
   <energy>
    <i name="e_fr_energy">   -172.71672099 </i>
    <i name="e_wo_entrp">   -172.71672099 </i>
    <i name="e_0_energy">   -172.71672099 </i>
   </energy>
  </scstep>
  <scstep>
   <time name="total">    0.55    0.55</time>
   <energy>
    <i name="e_fr_energy">   -172.71672968 </i>
    <i name="e_wo_entrp">   -172.71672968 </i>
    <i name="e_0_energy">   -172.71672968 </i>
   </energy>
  </scstep>
  <scstep>
   <time name="total">    0.55    0.55</time>
   <energy>
    <i name="e_fr_energy">   -172.71672721 </i>
    <i name="e_wo_entrp">   -172.71672721 </i>
    <i name="e_0_energy">   -172.71672721 </i>
   </energy>
  </scstep>
  <scstep>
   <time name="total">    0.54    0.55</time>
   <energy>
    <i name="e_fr_energy">   -172.71673678 </i>
    <i name="e_wo_entrp">   -172.71673678 </i>
    <i name="e_0_energy">   -172.71673678 </i>
   </energy>
  </scstep>
  <scstep>
   <time name="total">    0.54    0.54</time>
   <energy>
    <i name="e_fr_energy">   -172.71673792 </i>
    <i name="e_wo_entrp">   -172.71673792 </i>
    <i name="e_0_energy">   -172.71673792 </i>
   </energy>
  </scstep>
  <scstep>
   <time name="total">    0.54    0.54</time>
   <energy>
    <i name="e_fr_energy">   -172.71673602 </i>
    <i name="e_wo_entrp">   -172.71673602 </i>
    <i name="e_0_energy">   -172.71673602 </i>
   </energy>
  </scstep>
  <scstep>
   <time name="total">    1.26    0.78</time>
   <energy>
    <i name="e_fr_energy">     -0.48218941 </i>
    <i name="e_wo_entrp">     -0.48218941 </i>
    <i name="e_0_energy">     -0.48218941 </i>
   </energy>
  </scstep>
  <scstep>
   <time name="total">    1.25    0.78</time>
   <energy>
    <i name="e_fr_energy">     -0.48461665 </i>
    <i name="e_wo_entrp">     -0.48461665 </i>
    <i name="e_0_energy">     -0.48461665 </i>
   </energy>
  </scstep>
  <scstep>
   <time name="total">    1.25    0.78</time>
   <energy>
    <i name="e_fr_energy">     -0.48479941 </i>
    <i name="e_wo_entrp">     -0.48479941 </i>
    <i name="e_0_energy">     -0.48479941 </i>
   </energy>
  </scstep>
  <scstep>
   <time name="total">    1.26    0.79</time>
   <energy>
    <i name="e_fr_energy">     -0.48480805 </i>
    <i name="e_wo_entrp">     -0.48480805 </i>
    <i name="e_0_energy">     -0.48480805 </i>
   </energy>
  </scstep>
  <scstep>
   <time name="total">    1.26    0.79</time>
   <energy>
    <i name="e_fr_energy">     -0.48480834 </i>
    <i name="e_wo_entrp">     -0.48480834 </i>
    <i name="e_0_energy">     -0.48480834 </i>
   </energy>
  </scstep>
  <scstep>
   <time name="total">    1.23    0.75</time>
   <energy>
    <i name="e_fr_energy">     -0.48480837 </i>
    <i name="e_wo_entrp">     -0.48480837 </i>
    <i name="e_0_energy">     -0.48480837 </i>
   </energy>
  </scstep>
  <scstep>
   <time name="total">    1.20    0.71</time>
   <energy>
    <i name="e_fr_energy">     -0.48480837 </i>
    <i name="e_wo_entrp">     -0.48480837 </i>
    <i name="e_0_energy">     -0.48480837 </i>
   </energy>
  </scstep>
  <scstep>
   <time name="total">    1.18    0.70</time>
   <energy>
    <i name="e_fr_energy">     -0.48480837 </i>
    <i name="e_wo_entrp">     -0.48480837 </i>
    <i name="e_0_energy">     -0.48480837 </i>
   </energy>
  </scstep>
  <scstep>
   <time name="total">    1.17    0.69</time>
   <energy>
    <i name="e_fr_energy">     -0.48480837 </i>
    <i name="e_wo_entrp">     -0.48480837 </i>
    <i name="e_0_energy">     -0.48480837 </i>
   </energy>
  </scstep>
  <scstep>
   <time name="total">    1.16    0.69</time>
   <energy>
    <i name="e_fr_energy">     -0.48480837 </i>
    <i name="e_wo_entrp">     -0.48480837 </i>
    <i name="e_0_energy">     -0.48480837 </i>
   </energy>
  </scstep>
  <scstep>
   <time name="total">    1.25    0.78</time>
   <energy>
    <i name="e_fr_energy">     -0.48392062 </i>
    <i name="e_wo_entrp">     -0.48392062 </i>
    <i name="e_0_energy">     -0.48392062 </i>
   </energy>
  </scstep>
  <scstep>
   <time name="total">    1.25    0.78</time>
   <energy>
    <i name="e_fr_energy">     -0.48612541 </i>
    <i name="e_wo_entrp">     -0.48612541 </i>
    <i name="e_0_energy">     -0.48612541 </i>
   </energy>
  </scstep>
  <scstep>
   <time name="total">    1.25    0.78</time>
   <energy>
    <i name="e_fr_energy">     -0.48631813 </i>
    <i name="e_wo_entrp">     -0.48631813 </i>
    <i name="e_0_energy">     -0.48631813 </i>
   </energy>
  </scstep>
  <scstep>
   <time name="total">    1.26    0.79</time>
   <energy>
    <i name="e_fr_energy">     -0.48632689 </i>
    <i name="e_wo_entrp">     -0.48632689 </i>
    <i name="e_0_energy">     -0.48632689 </i>
   </energy>
  </scstep>
  <scstep>
   <time name="total">    1.26    0.79</time>
   <energy>
    <i name="e_fr_energy">     -0.48632720 </i>
    <i name="e_wo_entrp">     -0.48632720 </i>
    <i name="e_0_energy">     -0.48632720 </i>
   </energy>
  </scstep>
  <scstep>
   <time name="total">    1.23    0.75</time>
   <energy>
    <i name="e_fr_energy">     -0.48632723 </i>
    <i name="e_wo_entrp">     -0.48632723 </i>
    <i name="e_0_energy">     -0.48632723 </i>
   </energy>
  </scstep>
  <scstep>
   <time name="total">    1.19    0.71</time>
   <energy>
    <i name="e_fr_energy">     -0.48632723 </i>
    <i name="e_wo_entrp">     -0.48632723 </i>
    <i name="e_0_energy">     -0.48632723 </i>
   </energy>
  </scstep>
  <scstep>
   <time name="total">    1.18    0.70</time>
   <energy>
    <i name="e_fr_energy">     -0.48632723 </i>
    <i name="e_wo_entrp">     -0.48632723 </i>
    <i name="e_0_energy">     -0.48632723 </i>
   </energy>
  </scstep>
  <scstep>
   <time name="total">    1.17    0.69</time>
   <energy>
    <i name="e_fr_energy">     -0.48632723 </i>
    <i name="e_wo_entrp">     -0.48632723 </i>
    <i name="e_0_energy">     -0.48632723 </i>
   </energy>
  </scstep>
  <scstep>
   <time name="total">    1.16    0.69</time>
   <energy>
    <i name="e_fr_energy">     -0.48632723 </i>
    <i name="e_wo_entrp">     -0.48632723 </i>
    <i name="e_0_energy">     -0.48632723 </i>
   </energy>
  </scstep>
  <scstep>
   <time name="total">    1.26    0.78</time>
   <energy>
    <i name="e_fr_energy">     -0.48760486 </i>
    <i name="e_wo_entrp">     -0.48760486 </i>
    <i name="e_0_energy">     -0.48760486 </i>
   </energy>
  </scstep>
  <scstep>
   <time name="total">    1.25    0.77</time>
   <energy>
    <i name="e_fr_energy">     -0.48965485 </i>
    <i name="e_wo_entrp">     -0.48965485 </i>
    <i name="e_0_energy">     -0.48965485 </i>
   </energy>
  </scstep>
  <scstep>
   <time name="total">    1.37    0.79</time>
   <energy>
    <i name="e_fr_energy">     -0.48984586 </i>
    <i name="e_wo_entrp">     -0.48984586 </i>
    <i name="e_0_energy">     -0.48984586 </i>
   </energy>
  </scstep>
  <scstep>
   <time name="total">    1.25    0.78</time>
   <energy>
    <i name="e_fr_energy">     -0.48985479 </i>
    <i name="e_wo_entrp">     -0.48985479 </i>
    <i name="e_0_energy">     -0.48985479 </i>
   </energy>
  </scstep>
  <scstep>
   <time name="total">    1.25    0.78</time>
   <energy>
    <i name="e_fr_energy">     -0.48985510 </i>
    <i name="e_wo_entrp">     -0.48985510 </i>
    <i name="e_0_energy">     -0.48985510 </i>
   </energy>
  </scstep>
  <scstep>
   <time name="total">    1.22    0.75</time>
   <energy>
    <i name="e_fr_energy">     -0.48985512 </i>
    <i name="e_wo_entrp">     -0.48985512 </i>
    <i name="e_0_energy">     -0.48985512 </i>
   </energy>
  </scstep>
  <scstep>
   <time name="total">    1.18    0.71</time>
   <energy>
    <i name="e_fr_energy">     -0.48985512 </i>
    <i name="e_wo_entrp">     -0.48985512 </i>
    <i name="e_0_energy">     -0.48985512 </i>
   </energy>
  </scstep>
  <scstep>
   <time name="total">    1.17    0.69</time>
   <energy>
    <i name="e_fr_energy">     -0.48985512 </i>
    <i name="e_wo_entrp">     -0.48985512 </i>
    <i name="e_0_energy">     -0.48985512 </i>
   </energy>
  </scstep>
  <scstep>
   <time name="total">    1.15    0.68</time>
   <energy>
    <i name="e_fr_energy">     -0.48985512 </i>
    <i name="e_wo_entrp">     -0.48985512 </i>
    <i name="e_0_energy">     -0.48985512 </i>
   </energy>
  </scstep>
  <scstep>
   <time name="total">    1.16    0.68</time>
   <energy>
    <i name="e_fr_energy">     -0.48985512 </i>
    <i name="e_wo_entrp">     -0.48985512 </i>
    <i name="e_0_energy">     -0.48985512 </i>
   </energy>
  </scstep>
  <varray name="dielectric_ipa" >
   <v>       2.58975942      -0.00000013       0.00000000 </v>
   <v>       0.00000013       2.58975942       0.00000000 </v>
   <v>       0.00000000       0.00000000       2.60380011 </v>
  </varray>
  <kpoints>
   <generation param="Gamma">
    <v type="int" name="divisions">       4        4        4 </v>
    <v name="usershift">      0.00000000       0.00000000       0.00000000 </v>
    <v name="genvec1">      0.25000000       0.00000000       0.00000000 </v>
    <v name="genvec2">      0.00000000       0.25000000       0.00000000 </v>
    <v name="genvec3">      0.00000000       0.00000000       0.25000000 </v>
    <v name="shift">      0.00000000       0.00000000       0.00000000 </v>
   </generation>
   <varray name="kpointlist" >
    <v>       0.00000000       0.00000000       0.00000000 </v>
    <v>       0.25000000       0.00000000       0.00000000 </v>
    <v>       0.00000000       0.25000000       0.00000000 </v>
    <v>      -0.25000000       0.25000000       0.00000000 </v>
    <v>       0.50000000       0.00000000       0.00000000 </v>
    <v>       0.00000000       0.50000000       0.00000000 </v>
    <v>       0.50000000       0.50000000       0.00000000 </v>
    <v>       0.25000000       0.25000000       0.00000000 </v>
    <v>      -0.25000000       0.50000000       0.00000000 </v>
    <v>       0.50000000       0.25000000       0.00000000 </v>
    <v>       0.00000000       0.00000000       0.25000000 </v>
    <v>       0.25000000       0.00000000       0.25000000 </v>
    <v>       0.00000000       0.25000000       0.25000000 </v>
    <v>      -0.25000000       0.25000000       0.25000000 </v>
    <v>      -0.25000000       0.00000000       0.25000000 </v>
    <v>       0.00000000      -0.25000000       0.25000000 </v>
    <v>       0.25000000      -0.25000000       0.25000000 </v>
    <v>       0.50000000       0.00000000       0.25000000 </v>
    <v>       0.00000000       0.50000000       0.25000000 </v>
    <v>       0.50000000       0.50000000       0.25000000 </v>
    <v>       0.25000000       0.25000000       0.25000000 </v>
    <v>      -0.25000000       0.50000000       0.25000000 </v>
    <v>       0.50000000       0.25000000       0.25000000 </v>
    <v>      -0.25000000      -0.25000000       0.25000000 </v>
    <v>       0.25000000       0.50000000       0.25000000 </v>
    <v>       0.50000000      -0.25000000       0.25000000 </v>
    <v>       0.00000000       0.00000000       0.50000000 </v>
    <v>       0.25000000       0.00000000       0.50000000 </v>
    <v>       0.00000000       0.25000000       0.50000000 </v>
    <v>      -0.25000000       0.25000000       0.50000000 </v>
    <v>       0.50000000       0.00000000       0.50000000 </v>
    <v>       0.00000000       0.50000000       0.50000000 </v>
    <v>       0.50000000       0.50000000       0.50000000 </v>
    <v>       0.25000000       0.25000000       0.50000000 </v>
    <v>      -0.25000000       0.50000000       0.50000000 </v>
    <v>       0.50000000       0.25000000       0.50000000 </v>
   </varray>
   <varray name="weights" >
    <v>       0.01562500 </v>
    <v>       0.03125000 </v>
    <v>       0.03125000 </v>
    <v>       0.03125000 </v>
    <v>       0.01562500 </v>
    <v>       0.01562500 </v>
    <v>       0.01562500 </v>
    <v>       0.03125000 </v>
    <v>       0.03125000 </v>
    <v>       0.03125000 </v>
    <v>       0.03125000 </v>
    <v>       0.03125000 </v>
    <v>       0.03125000 </v>
    <v>       0.03125000 </v>
    <v>       0.03125000 </v>
    <v>       0.03125000 </v>
    <v>       0.03125000 </v>
    <v>       0.03125000 </v>
    <v>       0.03125000 </v>
    <v>       0.03125000 </v>
    <v>       0.03125000 </v>
    <v>       0.03125000 </v>
    <v>       0.03125000 </v>
    <v>       0.03125000 </v>
    <v>       0.03125000 </v>
    <v>       0.03125000 </v>
    <v>       0.01562500 </v>
    <v>       0.03125000 </v>
    <v>       0.03125000 </v>
    <v>       0.03125000 </v>
    <v>       0.01562500 </v>
    <v>       0.01562500 </v>
    <v>       0.01562500 </v>
    <v>       0.03125000 </v>
    <v>       0.03125000 </v>
    <v>       0.03125000 </v>
   </varray>
  </kpoints>
  <scstep>
   <time name="total">    2.28    1.81</time>
   <energy>
    <i name="e_fr_energy">     -0.48312163 </i>
    <i name="e_wo_entrp">     -0.48312163 </i>
    <i name="e_0_energy">     -0.48312163 </i>
   </energy>
  </scstep>
  <scstep>
   <time name="total">    2.36    1.87</time>
   <energy>
    <i name="e_fr_energy">     -0.48537158 </i>
    <i name="e_wo_entrp">     -0.48537158 </i>
    <i name="e_0_energy">     -0.48537158 </i>
   </energy>
  </scstep>
  <scstep>
   <time name="total">    2.38    1.89</time>
   <energy>
    <i name="e_fr_energy">     -0.46530226 </i>
    <i name="e_wo_entrp">     -0.46530226 </i>
    <i name="e_0_energy">     -0.46530226 </i>
   </energy>
  </scstep>
  <scstep>
   <time name="total">    2.39    1.90</time>
   <energy>
    <i name="e_fr_energy">     -0.47615192 </i>
    <i name="e_wo_entrp">     -0.47615192 </i>
    <i name="e_0_energy">     -0.47615192 </i>
   </energy>
  </scstep>
  <scstep>
   <time name="total">    2.38    1.89</time>
   <energy>
    <i name="e_fr_energy">     -0.49391505 </i>
    <i name="e_wo_entrp">     -0.49391505 </i>
    <i name="e_0_energy">     -0.49391505 </i>
   </energy>
  </scstep>
  <scstep>
   <time name="total">    2.36    1.87</time>
   <energy>
    <i name="e_fr_energy">     -0.49684463 </i>
    <i name="e_wo_entrp">     -0.49684463 </i>
    <i name="e_0_energy">     -0.49684463 </i>
   </energy>
  </scstep>
  <scstep>
   <time name="total">    2.43    1.91</time>
   <energy>
    <i name="e_fr_energy">     -0.49707561 </i>
    <i name="e_wo_entrp">     -0.49707561 </i>
    <i name="e_0_energy">     -0.49707561 </i>
   </energy>
  </scstep>
  <scstep>
   <time name="total">    2.41    1.91</time>
   <energy>
    <i name="e_fr_energy">     -0.49730655 </i>
    <i name="e_wo_entrp">     -0.49730655 </i>
    <i name="e_0_energy">     -0.49730655 </i>
   </energy>
  </scstep>
  <scstep>
   <time name="total">    2.40    1.91</time>
   <energy>
    <i name="e_fr_energy">     -0.49737139 </i>
    <i name="e_wo_entrp">     -0.49737139 </i>
    <i name="e_0_energy">     -0.49737139 </i>
   </energy>
  </scstep>
  <scstep>
   <time name="total">    2.40    1.91</time>
   <energy>
    <i name="e_fr_energy">     -0.49736619 </i>
    <i name="e_wo_entrp">     -0.49736619 </i>
    <i name="e_0_energy">     -0.49736619 </i>
   </energy>
  </scstep>
  <scstep>
   <time name="total">    2.39    1.89</time>
   <energy>
    <i name="e_fr_energy">     -0.49736738 </i>
    <i name="e_wo_entrp">     -0.49736738 </i>
    <i name="e_0_energy">     -0.49736738 </i>
   </energy>
  </scstep>
  <scstep>
   <time name="total">    2.32    1.83</time>
   <energy>
    <i name="e_fr_energy">     -0.49736743 </i>
    <i name="e_wo_entrp">     -0.49736743 </i>
    <i name="e_0_energy">     -0.49736743 </i>
   </energy>
  </scstep>
  <scstep>
   <time name="total">    2.34    1.84</time>
   <energy>
    <i name="e_fr_energy">     -0.49736750 </i>
    <i name="e_wo_entrp">     -0.49736750 </i>
    <i name="e_0_energy">     -0.49736750 </i>
   </energy>
  </scstep>
  <scstep>
   <time name="total">    2.33    1.83</time>
   <energy>
    <i name="e_fr_energy">     -0.49736745 </i>
    <i name="e_wo_entrp">     -0.49736745 </i>
    <i name="e_0_energy">     -0.49736745 </i>
   </energy>
  </scstep>
  <kpoints>
   <generation param="Gamma">
    <v type="int" name="divisions">       4        4        4 </v>
    <v name="usershift">      0.00000000       0.00000000       0.00000000 </v>
    <v name="genvec1">      0.25000000       0.00000000       0.00000000 </v>
    <v name="genvec2">      0.00000000       0.25000000       0.00000000 </v>
    <v name="genvec3">      0.00000000       0.00000000       0.25000000 </v>
    <v name="shift">      0.00000000       0.00000000       0.00000000 </v>
   </generation>
   <varray name="kpointlist" >
    <v>       0.00000000       0.00000000       0.00000000 </v>
    <v>       0.25000000       0.00000000       0.00000000 </v>
    <v>       0.00000000       0.25000000       0.00000000 </v>
    <v>      -0.25000000       0.25000000       0.00000000 </v>
    <v>       0.50000000       0.00000000       0.00000000 </v>
    <v>       0.00000000       0.50000000       0.00000000 </v>
    <v>       0.50000000       0.50000000       0.00000000 </v>
    <v>       0.25000000       0.25000000       0.00000000 </v>
    <v>      -0.25000000       0.50000000       0.00000000 </v>
    <v>       0.50000000       0.25000000       0.00000000 </v>
    <v>       0.00000000       0.00000000       0.25000000 </v>
    <v>       0.25000000       0.00000000       0.25000000 </v>
    <v>       0.00000000       0.25000000       0.25000000 </v>
    <v>      -0.25000000       0.25000000       0.25000000 </v>
    <v>      -0.25000000       0.00000000       0.25000000 </v>
    <v>       0.00000000      -0.25000000       0.25000000 </v>
    <v>       0.25000000      -0.25000000       0.25000000 </v>
    <v>       0.50000000       0.00000000       0.25000000 </v>
    <v>       0.00000000       0.50000000       0.25000000 </v>
    <v>       0.50000000       0.50000000       0.25000000 </v>
    <v>       0.25000000       0.25000000       0.25000000 </v>
    <v>      -0.25000000       0.50000000       0.25000000 </v>
    <v>       0.50000000       0.25000000       0.25000000 </v>
    <v>      -0.25000000      -0.25000000       0.25000000 </v>
    <v>       0.25000000       0.50000000       0.25000000 </v>
    <v>       0.50000000      -0.25000000       0.25000000 </v>
    <v>       0.00000000       0.00000000       0.50000000 </v>
    <v>       0.25000000       0.00000000       0.50000000 </v>
    <v>       0.00000000       0.25000000       0.50000000 </v>
    <v>      -0.25000000       0.25000000       0.50000000 </v>
    <v>       0.50000000       0.00000000       0.50000000 </v>
    <v>       0.00000000       0.50000000       0.50000000 </v>
    <v>       0.50000000       0.50000000       0.50000000 </v>
    <v>       0.25000000       0.25000000       0.50000000 </v>
    <v>      -0.25000000       0.50000000       0.50000000 </v>
    <v>       0.50000000       0.25000000       0.50000000 </v>
   </varray>
   <varray name="weights" >
    <v>       0.01562500 </v>
    <v>       0.03125000 </v>
    <v>       0.03125000 </v>
    <v>       0.03125000 </v>
    <v>       0.01562500 </v>
    <v>       0.01562500 </v>
    <v>       0.01562500 </v>
    <v>       0.03125000 </v>
    <v>       0.03125000 </v>
    <v>       0.03125000 </v>
    <v>       0.03125000 </v>
    <v>       0.03125000 </v>
    <v>       0.03125000 </v>
    <v>       0.03125000 </v>
    <v>       0.03125000 </v>
    <v>       0.03125000 </v>
    <v>       0.03125000 </v>
    <v>       0.03125000 </v>
    <v>       0.03125000 </v>
    <v>       0.03125000 </v>
    <v>       0.03125000 </v>
    <v>       0.03125000 </v>
    <v>       0.03125000 </v>
    <v>       0.03125000 </v>
    <v>       0.03125000 </v>
    <v>       0.03125000 </v>
    <v>       0.01562500 </v>
    <v>       0.03125000 </v>
    <v>       0.03125000 </v>
    <v>       0.03125000 </v>
    <v>       0.01562500 </v>
    <v>       0.01562500 </v>
    <v>       0.01562500 </v>
    <v>       0.03125000 </v>
    <v>       0.03125000 </v>
    <v>       0.03125000 </v>
   </varray>
  </kpoints>
  <scstep>
   <time name="total">    2.29    1.82</time>
   <energy>
    <i name="e_fr_energy">     -0.48316158 </i>
    <i name="e_wo_entrp">     -0.48316158 </i>
    <i name="e_0_energy">     -0.48316158 </i>
   </energy>
  </scstep>
  <scstep>
   <time name="total">    2.82    1.95</time>
   <energy>
    <i name="e_fr_energy">     -0.48537002 </i>
    <i name="e_wo_entrp">     -0.48537002 </i>
    <i name="e_0_energy">     -0.48537002 </i>
   </energy>
  </scstep>
  <scstep>
   <time name="total">    2.39    1.90</time>
   <energy>
    <i name="e_fr_energy">     -0.46517913 </i>
    <i name="e_wo_entrp">     -0.46517913 </i>
    <i name="e_0_energy">     -0.46517913 </i>
   </energy>
  </scstep>
  <scstep>
   <time name="total">    2.41    1.90</time>
   <energy>
    <i name="e_fr_energy">     -0.47605535 </i>
    <i name="e_wo_entrp">     -0.47605535 </i>
    <i name="e_0_energy">     -0.47605535 </i>
   </energy>
  </scstep>
  <scstep>
   <time name="total">    2.38    1.89</time>
   <energy>
    <i name="e_fr_energy">     -0.49380463 </i>
    <i name="e_wo_entrp">     -0.49380463 </i>
    <i name="e_0_energy">     -0.49380463 </i>
   </energy>
  </scstep>
  <scstep>
   <time name="total">    2.36    1.86</time>
   <energy>
    <i name="e_fr_energy">     -0.49671926 </i>
    <i name="e_wo_entrp">     -0.49671926 </i>
    <i name="e_0_energy">     -0.49671926 </i>
   </energy>
  </scstep>
  <scstep>
   <time name="total">    2.42    1.91</time>
   <energy>
    <i name="e_fr_energy">     -0.49696165 </i>
    <i name="e_wo_entrp">     -0.49696165 </i>
    <i name="e_0_energy">     -0.49696165 </i>
   </energy>
  </scstep>
  <scstep>
   <time name="total">    2.40    1.90</time>
   <energy>
    <i name="e_fr_energy">     -0.49719106 </i>
    <i name="e_wo_entrp">     -0.49719106 </i>
    <i name="e_0_energy">     -0.49719106 </i>
   </energy>
  </scstep>
  <scstep>
   <time name="total">    2.40    1.91</time>
   <energy>
    <i name="e_fr_energy">     -0.49725654 </i>
    <i name="e_wo_entrp">     -0.49725654 </i>
    <i name="e_0_energy">     -0.49725654 </i>
   </energy>
  </scstep>
  <scstep>
   <time name="total">    2.40    1.91</time>
   <energy>
    <i name="e_fr_energy">     -0.49725163 </i>
    <i name="e_wo_entrp">     -0.49725163 </i>
    <i name="e_0_energy">     -0.49725163 </i>
   </energy>
  </scstep>
  <scstep>
   <time name="total">    2.38    1.89</time>
   <energy>
    <i name="e_fr_energy">     -0.49725256 </i>
    <i name="e_wo_entrp">     -0.49725256 </i>
    <i name="e_0_energy">     -0.49725256 </i>
   </energy>
  </scstep>
  <scstep>
   <time name="total">    2.32    1.83</time>
   <energy>
    <i name="e_fr_energy">     -0.49725267 </i>
    <i name="e_wo_entrp">     -0.49725267 </i>
    <i name="e_0_energy">     -0.49725267 </i>
   </energy>
  </scstep>
  <scstep>
   <time name="total">    2.31    1.82</time>
   <energy>
    <i name="e_fr_energy">     -0.49725263 </i>
    <i name="e_wo_entrp">     -0.49725263 </i>
    <i name="e_0_energy">     -0.49725263 </i>
   </energy>
  </scstep>
  <scstep>
   <time name="total">    2.32    1.83</time>
   <energy>
    <i name="e_fr_energy">     -0.49725263 </i>
    <i name="e_wo_entrp">     -0.49725263 </i>
    <i name="e_0_energy">     -0.49725263 </i>
   </energy>
  </scstep>
  <kpoints>
   <generation param="Gamma">
    <v type="int" name="divisions">       4        4        4 </v>
    <v name="usershift">      0.00000000       0.00000000       0.00000000 </v>
    <v name="genvec1">      0.25000000       0.00000000       0.00000000 </v>
    <v name="genvec2">      0.00000000       0.25000000       0.00000000 </v>
    <v name="genvec3">      0.00000000       0.00000000       0.25000000 </v>
    <v name="shift">      0.00000000       0.00000000       0.00000000 </v>
   </generation>
   <varray name="kpointlist" >
    <v>       0.00000000       0.00000000       0.00000000 </v>
    <v>       0.25000000       0.00000000       0.00000000 </v>
    <v>       0.50000000       0.00000000       0.00000000 </v>
    <v>       0.25000000       0.25000000       0.00000000 </v>
    <v>       0.00000000       0.00000000       0.25000000 </v>
    <v>       0.25000000       0.00000000       0.25000000 </v>
    <v>       0.00000000       0.25000000       0.25000000 </v>
    <v>       0.50000000       0.00000000       0.25000000 </v>
    <v>       0.25000000       0.25000000       0.25000000 </v>
    <v>      -0.25000000       0.50000000       0.25000000 </v>
    <v>       0.00000000       0.00000000       0.50000000 </v>
    <v>       0.25000000       0.00000000       0.50000000 </v>
    <v>       0.50000000       0.00000000       0.50000000 </v>
    <v>       0.25000000       0.25000000       0.50000000 </v>
   </varray>
   <varray name="weights" >
    <v>       0.01562500 </v>
    <v>       0.09375000 </v>
    <v>       0.04687500 </v>
    <v>       0.09375000 </v>
    <v>       0.03125000 </v>
    <v>       0.09375000 </v>
    <v>       0.09375000 </v>
    <v>       0.09375000 </v>
    <v>       0.09375000 </v>
    <v>       0.09375000 </v>
    <v>       0.01562500 </v>
    <v>       0.09375000 </v>
    <v>       0.04687500 </v>
    <v>       0.09375000 </v>
   </varray>
  </kpoints>
  <scstep>
   <time name="total">    1.25    0.78</time>
   <energy>
    <i name="e_fr_energy">     -0.48760486 </i>
    <i name="e_wo_entrp">     -0.48760486 </i>
    <i name="e_0_energy">     -0.48760486 </i>
   </energy>
  </scstep>
  <scstep>
   <time name="total">    1.29    0.80</time>
   <energy>
    <i name="e_fr_energy">     -0.48965485 </i>
    <i name="e_wo_entrp">     -0.48965485 </i>
    <i name="e_0_energy">     -0.48965485 </i>
   </energy>
  </scstep>
  <scstep>
   <time name="total">    1.29    0.81</time>
   <energy>
    <i name="e_fr_energy">     -0.47437266 </i>
    <i name="e_wo_entrp">     -0.47437266 </i>
    <i name="e_0_energy">     -0.47437266 </i>
   </energy>
  </scstep>
  <scstep>
   <time name="total">    1.30    0.81</time>
   <energy>
    <i name="e_fr_energy">     -0.48760560 </i>
    <i name="e_wo_entrp">     -0.48760560 </i>
    <i name="e_0_energy">     -0.48760560 </i>
   </energy>
  </scstep>
  <scstep>
   <time name="total">    1.30    0.81</time>
   <energy>
    <i name="e_fr_energy">     -0.50386740 </i>
    <i name="e_wo_entrp">     -0.50386740 </i>
    <i name="e_0_energy">     -0.50386740 </i>
   </energy>
  </scstep>
  <scstep>
   <time name="total">    1.28    0.79</time>
   <energy>
    <i name="e_fr_energy">     -0.50670981 </i>
    <i name="e_wo_entrp">     -0.50670981 </i>
    <i name="e_0_energy">     -0.50670981 </i>
   </energy>
  </scstep>
  <scstep>
   <time name="total">    1.30    0.81</time>
   <energy>
    <i name="e_fr_energy">     -0.50695521 </i>
    <i name="e_wo_entrp">     -0.50695521 </i>
    <i name="e_0_energy">     -0.50695521 </i>
   </energy>
  </scstep>
  <scstep>
   <time name="total">    1.29    0.80</time>
   <energy>
    <i name="e_fr_energy">     -0.50722093 </i>
    <i name="e_wo_entrp">     -0.50722093 </i>
    <i name="e_0_energy">     -0.50722093 </i>
   </energy>
  </scstep>
  <scstep>
   <time name="total">    1.31    0.81</time>
   <energy>
    <i name="e_fr_energy">     -0.50724345 </i>
    <i name="e_wo_entrp">     -0.50724345 </i>
    <i name="e_0_energy">     -0.50724345 </i>
   </energy>
  </scstep>
  <scstep>
   <time name="total">    1.31    0.82</time>
   <energy>
    <i name="e_fr_energy">     -0.50724465 </i>
    <i name="e_wo_entrp">     -0.50724465 </i>
    <i name="e_0_energy">     -0.50724465 </i>
   </energy>
  </scstep>
  <scstep>
   <time name="total">    1.31    0.82</time>
   <energy>
    <i name="e_fr_energy">     -0.50724381 </i>
    <i name="e_wo_entrp">     -0.50724381 </i>
    <i name="e_0_energy">     -0.50724381 </i>
   </energy>
  </scstep>
  <scstep>
   <time name="total">    1.26    0.77</time>
   <energy>
    <i name="e_fr_energy">     -0.50724405 </i>
    <i name="e_wo_entrp">     -0.50724405 </i>
    <i name="e_0_energy">     -0.50724405 </i>
   </energy>
  </scstep>
  <scstep>
   <time name="total">    1.29    0.80</time>
   <energy>
    <i name="e_fr_energy">     -0.50724403 </i>
    <i name="e_wo_entrp">     -0.50724403 </i>
    <i name="e_0_energy">     -0.50724403 </i>
   </energy>
  </scstep>
  <scstep>
   <time name="total">    1.30    0.77</time>
   <energy>
    <i name="e_fr_energy">     -0.50724404 </i>
    <i name="e_wo_entrp">     -0.50724404 </i>
    <i name="e_0_energy">     -0.50724404 </i>
   </energy>
  </scstep>
  <kpoints>
   <generation param="Gamma">
    <v type="int" name="divisions">       4        4        4 </v>
    <v name="usershift">      0.00000000       0.00000000       0.00000000 </v>
    <v name="genvec1">      0.25000000       0.00000000       0.00000000 </v>
    <v name="genvec2">      0.00000000       0.25000000       0.00000000 </v>
    <v name="genvec3">      0.00000000       0.00000000       0.25000000 </v>
    <v name="shift">      0.00000000       0.00000000       0.00000000 </v>
   </generation>
   <varray name="kpointlist" >
    <v>       0.00000000       0.00000000       0.00000000 </v>
    <v>       0.25000000       0.00000000       0.00000000 </v>
    <v>       0.50000000       0.00000000       0.00000000 </v>
    <v>       0.25000000       0.25000000       0.00000000 </v>
    <v>       0.00000000       0.00000000       0.25000000 </v>
    <v>       0.25000000       0.00000000       0.25000000 </v>
    <v>       0.00000000       0.25000000       0.25000000 </v>
    <v>       0.50000000       0.00000000       0.25000000 </v>
    <v>       0.25000000       0.25000000       0.25000000 </v>
    <v>      -0.25000000       0.50000000       0.25000000 </v>
    <v>       0.00000000       0.00000000       0.50000000 </v>
    <v>       0.25000000       0.00000000       0.50000000 </v>
    <v>       0.50000000       0.00000000       0.50000000 </v>
    <v>       0.25000000       0.25000000       0.50000000 </v>
   </varray>
   <varray name="weights" >
    <v>       0.01562500 </v>
    <v>       0.09375000 </v>
    <v>       0.04687500 </v>
    <v>       0.09375000 </v>
    <v>       0.03125000 </v>
    <v>       0.09375000 </v>
    <v>       0.09375000 </v>
    <v>       0.09375000 </v>
    <v>       0.09375000 </v>
    <v>       0.09375000 </v>
    <v>       0.01562500 </v>
    <v>       0.09375000 </v>
    <v>       0.04687500 </v>
    <v>       0.09375000 </v>
   </varray>
  </kpoints>
  <varray name="dielectric_dft" >
   <v>       2.48082058      -0.00000067       0.00000000 </v>
   <v>       0.00000067       2.48082058       0.00000000 </v>
   <v>       0.00000000      -0.00000000       2.51333944 </v>
  </varray>
  <varray name="epsilon" >
   <v>       2.48082058      -0.00000067       0.00000000 </v>
   <v>       0.00000067       2.48082058       0.00000000 </v>
   <v>       0.00000000      -0.00000000       2.51333944 </v>
  </varray>
  <kpoints>
   <generation param="Gamma">
    <v type="int" name="divisions">       4        4        4 </v>
    <v name="usershift">      0.00000000       0.00000000       0.00000000 </v>
    <v name="genvec1">      0.25000000       0.00000000       0.00000000 </v>
    <v name="genvec2">      0.00000000       0.25000000       0.00000000 </v>
    <v name="genvec3">      0.00000000       0.00000000       0.25000000 </v>
    <v name="shift">      0.00000000       0.00000000       0.00000000 </v>
   </generation>
   <varray name="kpointlist" >
    <v>       0.00000000       0.00000000       0.00000000 </v>
    <v>       0.25000000       0.00000000       0.00000000 </v>
    <v>       0.50000000       0.00000000       0.00000000 </v>
    <v>       0.25000000       0.25000000       0.00000000 </v>
    <v>       0.00000000       0.00000000       0.25000000 </v>
    <v>       0.25000000       0.00000000       0.25000000 </v>
    <v>       0.00000000       0.25000000       0.25000000 </v>
    <v>       0.50000000       0.00000000       0.25000000 </v>
    <v>       0.25000000       0.25000000       0.25000000 </v>
    <v>      -0.25000000       0.50000000       0.25000000 </v>
    <v>       0.00000000       0.00000000       0.50000000 </v>
    <v>       0.25000000       0.00000000       0.50000000 </v>
    <v>       0.50000000       0.00000000       0.50000000 </v>
    <v>       0.25000000       0.25000000       0.50000000 </v>
   </varray>
   <varray name="weights" >
    <v>       0.01562500 </v>
    <v>       0.09375000 </v>
    <v>       0.04687500 </v>
    <v>       0.09375000 </v>
    <v>       0.03125000 </v>
    <v>       0.09375000 </v>
    <v>       0.09375000 </v>
    <v>       0.09375000 </v>
    <v>       0.09375000 </v>
    <v>       0.09375000 </v>
    <v>       0.01562500 </v>
    <v>       0.09375000 </v>
    <v>       0.04687500 </v>
    <v>       0.09375000 </v>
   </varray>
  </kpoints>
  <array name="born_charges" >
   <dimension dim="1">ion</dimension>
   <set>
    <v>       2.98056882       0.00039369       0.00104685 </v>
    <v>       0.00056248       3.62051623      -0.32131533 </v>
    <v>       0.00053600       0.27802240       3.42536358 </v>
   </set>
   <set>
    <v>       3.46094341       0.27678192       0.27774381 </v>
    <v>       0.27695071       3.14014164       0.16156426 </v>
    <v>      -0.24104246      -0.13854701       3.42536358 </v>
   </set>
   <set>
    <v>       3.46011534      -0.27742879      -0.27879066 </v>
    <v>      -0.27726000       3.14096971       0.15975107 </v>
    <v>       0.24050646      -0.13947539       3.42536358 </v>
   </set>
   <set>
    <v>      -1.31168818      -0.49357093      -0.30972186 </v>
    <v>      -0.43650743      -1.98946250      -0.67849769 </v>
    <v>      -0.24363077      -0.72155045      -1.71239007 </v>
   </set>
   <set>
    <v>      -2.22275466      -0.08949705       0.74245716 </v>
    <v>      -0.03243355      -1.07839602       0.07102184 </v>
    <v>       0.74669640       0.14978479      -1.71239007 </v>
   </set>
   <set>
    <v>      -1.41728318       0.49747273      -0.43273530 </v>
    <v>       0.55453623      -1.88386750       0.60747584 </v>
    <v>      -0.50306563       0.57176566      -1.71239007 </v>
   </set>
   <set>
    <v>      -1.31066137       0.49316343       0.31060972 </v>
    <v>       0.43593114      -1.98927300      -0.67939253 </v>
    <v>       0.24323249      -0.72135826      -1.71297351 </v>
   </set>
   <set>
    <v>      -2.22192984       0.09018996      -0.74367605 </v>
    <v>       0.03295767      -1.07800453       0.07070035 </v>
    <v>      -0.74633082       0.15003361      -1.71297351 </v>
   </set>
   <set>
    <v>      -1.41731034      -0.49750495       0.43306632 </v>
    <v>      -0.55473724      -1.88262403       0.60869218 </v>
    <v>       0.50309833       0.57132465      -1.71297351 </v>
   </set>
  </array>
  <time name="totalsc">  234.18  138.66</time>
  <eigenvalues>
   <array>
    <dimension dim="1">band</dimension>
    <dimension dim="2">kpoint</dimension>
    <dimension dim="3">spin</dimension>
    <field>eigene</field>
    <field>occ</field>
    <set>
     <set comment="spin 1">
      <set comment="kpoint 1">
       <r>  -18.1720    1.0000 </r>
       <r>  -16.6202    1.0000 </r>
       <r>  -16.6202    1.0000 </r>
       <r>  -15.9515    1.0000 </r>
       <r>  -15.9422    1.0000 </r>
       <r>  -15.9422    1.0000 </r>
       <r>   -6.8790    1.0000 </r>
       <r>   -6.8790    1.0000 </r>
       <r>   -4.1470    1.0000 </r>
       <r>   -4.0635    1.0000 </r>
       <r>   -3.9112    1.0000 </r>
       <r>   -3.9112    1.0000 </r>
       <r>   -1.6856    1.0000 </r>
       <r>   -1.6856    1.0000 </r>
       <r>   -1.3751    1.0000 </r>
       <r>   -1.1504    1.0000 </r>
       <r>   -0.1556    1.0000 </r>
       <r>   -0.1556    1.0000 </r>
       <r>   -0.0981    1.0000 </r>
       <r>    0.2614    1.0000 </r>
       <r>    0.2614    1.0000 </r>
       <r>    0.4587    1.0000 </r>
       <r>    1.0042    1.0000 </r>
       <r>    1.0042    1.0000 </r>
       <r>    7.3235    0.0000 </r>
       <r>   10.6085    0.0000 </r>
       <r>   10.6085    0.0000 </r>
       <r>   11.2366    0.0000 </r>
       <r>   11.2366    0.0000 </r>
      </set>
      <set comment="kpoint 2">
       <r>  -17.9880    1.0000 </r>
       <r>  -16.8198    1.0000 </r>
       <r>  -16.5939    1.0000 </r>
       <r>  -16.0190    1.0000 </r>
       <r>  -15.9756    1.0000 </r>
       <r>  -15.9419    1.0000 </r>
       <r>   -6.9569    1.0000 </r>
       <r>   -6.5092    1.0000 </r>
       <r>   -4.2177    1.0000 </r>
       <r>   -4.1544    1.0000 </r>
       <r>   -4.0324    1.0000 </r>
       <r>   -3.6189    1.0000 </r>
       <r>   -1.8729    1.0000 </r>
       <r>   -1.5567    1.0000 </r>
       <r>   -1.3478    1.0000 </r>
       <r>   -0.8969    1.0000 </r>
       <r>   -0.6972    1.0000 </r>
       <r>   -0.2393    1.0000 </r>
       <r>   -0.1600    1.0000 </r>
       <r>    0.1792    1.0000 </r>
       <r>    0.2770    1.0000 </r>
       <r>    0.4210    1.0000 </r>
       <r>    1.0536    1.0000 </r>
       <r>    1.1416    1.0000 </r>
       <r>    8.2330    0.0000 </r>
       <r>   10.6697    0.0000 </r>
       <r>   10.7200    0.0000 </r>
       <r>   11.2073    0.0000 </r>
       <r>   11.4827    0.0000 </r>
      </set>
      <set comment="kpoint 3">
       <r>  -17.6651    1.0000 </r>
       <r>  -17.1820    1.0000 </r>
       <r>  -16.5650    1.0000 </r>
       <r>  -16.0454    1.0000 </r>
       <r>  -16.0009    1.0000 </r>
       <r>  -15.9674    1.0000 </r>
       <r>   -7.0306    1.0000 </r>
       <r>   -6.0440    1.0000 </r>
       <r>   -4.5561    1.0000 </r>
       <r>   -4.0986    1.0000 </r>
       <r>   -4.0867    1.0000 </r>
       <r>   -3.2818    1.0000 </r>
       <r>   -1.8239    1.0000 </r>
       <r>   -1.6228    1.0000 </r>
       <r>   -1.4347    1.0000 </r>
       <r>   -1.0012    1.0000 </r>
       <r>   -0.7925    1.0000 </r>
       <r>   -0.4795    1.0000 </r>
       <r>   -0.2877    1.0000 </r>
       <r>    0.1952    1.0000 </r>
       <r>    0.2820    1.0000 </r>
       <r>    0.5595    1.0000 </r>
       <r>    1.0151    1.0000 </r>
       <r>    1.2412    1.0000 </r>
       <r>    9.6352    0.0000 </r>
       <r>   10.3716    0.0000 </r>
       <r>   10.9660    0.0000 </r>
       <r>   10.9891    0.0000 </r>
       <r>   11.9985    0.0000 </r>
      </set>
      <set comment="kpoint 4">
       <r>  -17.6756    1.0000 </r>
       <r>  -17.1515    1.0000 </r>
       <r>  -16.5959    1.0000 </r>
       <r>  -16.0405    1.0000 </r>
       <r>  -15.9991    1.0000 </r>
       <r>  -15.9638    1.0000 </r>
       <r>   -7.0589    1.0000 </r>
       <r>   -5.9058    1.0000 </r>
       <r>   -4.8493    1.0000 </r>
       <r>   -4.0742    1.0000 </r>
       <r>   -3.9324    1.0000 </r>
       <r>   -3.2896    1.0000 </r>
       <r>   -1.7834    1.0000 </r>
       <r>   -1.6280    1.0000 </r>
       <r>   -1.4652    1.0000 </r>
       <r>   -0.8975    1.0000 </r>
       <r>   -0.8476    1.0000 </r>
       <r>   -0.4277    1.0000 </r>
       <r>   -0.2437    1.0000 </r>
       <r>   -0.0086    1.0000 </r>
       <r>    0.2523    1.0000 </r>
       <r>    0.6679    1.0000 </r>
       <r>    0.9804    1.0000 </r>
       <r>    1.2630    1.0000 </r>
       <r>    9.4762    0.0000 </r>
       <r>   10.7358    0.0000 </r>
       <r>   10.7718    0.0000 </r>
       <r>   11.4411    0.0000 </r>
       <r>   11.5796    0.0000 </r>
      </set>
      <set comment="kpoint 5">
       <r>  -18.0467    1.0000 </r>
       <r>  -17.1801    1.0000 </r>
       <r>  -16.1700    1.0000 </r>
       <r>  -15.9555    1.0000 </r>
       <r>  -15.9535    1.0000 </r>
       <r>  -15.9223    1.0000 </r>
       <r>   -7.6522    1.0000 </r>
       <r>   -5.8674    1.0000 </r>
       <r>   -4.3684    1.0000 </r>
       <r>   -4.1815    1.0000 </r>
       <r>   -4.1300    1.0000 </r>
       <r>   -3.5528    1.0000 </r>
       <r>   -1.7666    1.0000 </r>
       <r>   -1.4403    1.0000 </r>
       <r>   -1.3094    1.0000 </r>
       <r>   -0.9471    1.0000 </r>
       <r>   -0.4233    1.0000 </r>
       <r>   -0.2931    1.0000 </r>
       <r>   -0.1654    1.0000 </r>
       <r>   -0.1611    1.0000 </r>
       <r>    0.1778    1.0000 </r>
       <r>    0.6299    1.0000 </r>
       <r>    1.0941    1.0000 </r>
       <r>    1.1786    1.0000 </r>
       <r>    7.9359    0.0000 </r>
       <r>   10.4178    0.0000 </r>
       <r>   10.6311    0.0000 </r>
       <r>   10.6443    0.0000 </r>
       <r>   11.6493    0.0000 </r>
      </set>
      <set comment="kpoint 6">
       <r>  -17.8796    1.0000 </r>
       <r>  -17.1562    1.0000 </r>
       <r>  -16.3551    1.0000 </r>
       <r>  -16.0144    1.0000 </r>
       <r>  -15.9929    1.0000 </r>
       <r>  -15.9395    1.0000 </r>
       <r>   -7.3280    1.0000 </r>
       <r>   -5.9250    1.0000 </r>
       <r>   -4.6327    1.0000 </r>
       <r>   -4.0961    1.0000 </r>
       <r>   -3.8304    1.0000 </r>
       <r>   -3.6546    1.0000 </r>
       <r>   -1.9392    1.0000 </r>
       <r>   -1.4330    1.0000 </r>
       <r>   -1.3054    1.0000 </r>
       <r>   -0.9654    1.0000 </r>
       <r>   -0.6437    1.0000 </r>
       <r>   -0.3021    1.0000 </r>
       <r>   -0.1670    1.0000 </r>
       <r>    0.0579    1.0000 </r>
       <r>    0.3183    1.0000 </r>
       <r>    0.4880    1.0000 </r>
       <r>    1.0121    1.0000 </r>
       <r>    1.1509    1.0000 </r>
       <r>    8.7073    0.0000 </r>
       <r>   10.4520    0.0000 </r>
       <r>   10.7348    0.0000 </r>
       <r>   10.9638    0.0000 </r>
       <r>   11.6991    0.0000 </r>
      </set>
      <set comment="kpoint 7">
       <r>  -17.8823    1.0000 </r>
       <r>  -17.1427    1.0000 </r>
       <r>  -16.3863    1.0000 </r>
       <r>  -16.0158    1.0000 </r>
       <r>  -15.9601    1.0000 </r>
       <r>  -15.9500    1.0000 </r>
       <r>   -7.3302    1.0000 </r>
       <r>   -5.9299    1.0000 </r>
       <r>   -4.6334    1.0000 </r>
       <r>   -4.1189    1.0000 </r>
       <r>   -3.8571    1.0000 </r>
       <r>   -3.5702    1.0000 </r>
       <r>   -1.8927    1.0000 </r>
       <r>   -1.3904    1.0000 </r>
       <r>   -1.3602    1.0000 </r>
       <r>   -1.1093    1.0000 </r>
       <r>   -0.6941    1.0000 </r>
       <r>   -0.2005    1.0000 </r>
       <r>   -0.1046    1.0000 </r>
       <r>    0.0409    1.0000 </r>
       <r>    0.3866    1.0000 </r>
       <r>    0.4110    1.0000 </r>
       <r>    0.9059    1.0000 </r>
       <r>    1.2524    1.0000 </r>
       <r>    8.6702    0.0000 </r>
       <r>   10.5744    0.0000 </r>
       <r>   10.8872    0.0000 </r>
       <r>   11.0276    0.0000 </r>
       <r>   11.5534    0.0000 </r>
      </set>
      <set comment="kpoint 8">
       <r>  -17.6283    1.0000 </r>
       <r>  -17.1624    1.0000 </r>
       <r>  -16.6338    1.0000 </r>
       <r>  -16.0524    1.0000 </r>
       <r>  -16.0076    1.0000 </r>
       <r>  -15.9579    1.0000 </r>
       <r>   -6.9565    1.0000 </r>
       <r>   -5.9804    1.0000 </r>
       <r>   -4.8534    1.0000 </r>
       <r>   -4.0803    1.0000 </r>
       <r>   -3.7933    1.0000 </r>
       <r>   -3.4625    1.0000 </r>
       <r>   -1.8854    1.0000 </r>
       <r>   -1.7936    1.0000 </r>
       <r>   -1.2421    1.0000 </r>
       <r>   -1.0499    1.0000 </r>
       <r>   -0.5804    1.0000 </r>
       <r>   -0.4813    1.0000 </r>
       <r>   -0.1350    1.0000 </r>
[...]
       <r>    1.2157    1.0000 </r>
       <r>    9.3085    0.0000 </r>
       <r>    9.3085    0.0000 </r>
       <r>   10.4336    0.0000 </r>
       <r>   10.9941    0.0000 </r>
       <r>   10.9941    0.0000 </r>
      </set>
      <set comment="kpoint 12">
       <r>  -17.6425    1.0000 </r>
       <r>  -17.5019    1.0000 </r>
       <r>  -16.2495    1.0000 </r>
       <r>  -16.0280    1.0000 </r>
       <r>  -15.9743    1.0000 </r>
       <r>  -15.9410    1.0000 </r>
       <r>   -7.5169    1.0000 </r>
       <r>   -5.3543    1.0000 </r>
       <r>   -5.0127    1.0000 </r>
       <r>   -4.0964    1.0000 </r>
       <r>   -3.9726    1.0000 </r>
       <r>   -3.4571    1.0000 </r>
       <r>   -1.7490    1.0000 </r>
       <r>   -1.7305    1.0000 </r>
       <r>   -1.2092    1.0000 </r>
       <r>   -0.9365    1.0000 </r>
       <r>   -0.7531    1.0000 </r>
       <r>   -0.2542    1.0000 </r>
       <r>   -0.1573    1.0000 </r>
       <r>    0.0430    1.0000 </r>
       <r>    0.1864    1.0000 </r>
       <r>    0.7963    1.0000 </r>
       <r>    0.8304    1.0000 </r>
       <r>    1.1411    1.0000 </r>
       <r>    9.6763    0.0000 </r>
       <r>    9.8378    0.0000 </r>
       <r>   10.7237    0.0000 </r>
       <r>   11.0287    0.0000 </r>
       <r>   11.3861    0.0000 </r>
      </set>
      <set comment="kpoint 13">
       <r>  -17.5873    1.0000 </r>
       <r>  -17.1416    1.0000 </r>
       <r>  -16.7047    1.0000 </r>
       <r>  -16.0741    1.0000 </r>
       <r>  -15.9942    1.0000 </r>
       <r>  -15.9574    1.0000 </r>
       <r>   -6.8760    1.0000 </r>
       <r>   -5.9141    1.0000 </r>
       <r>   -5.0479    1.0000 </r>
       <r>   -3.9970    1.0000 </r>
       <r>   -3.7051    1.0000 </r>
       <r>   -3.6149    1.0000 </r>
       <r>   -1.9309    1.0000 </r>
       <r>   -1.9232    1.0000 </r>
       <r>   -1.1444    1.0000 </r>
       <r>   -0.8283    1.0000 </r>
       <r>   -0.7467    1.0000 </r>
       <r>   -0.2749    1.0000 </r>
       <r>    0.0228    1.0000 </r>
       <r>    0.1888    1.0000 </r>
       <r>    0.3970    1.0000 </r>
       <r>    0.4051    1.0000 </r>
       <r>    0.6989    1.0000 </r>
       <r>    1.1195    1.0000 </r>
       <r>   10.2273    0.0000 </r>
       <r>   10.7252    0.0000 </r>
       <r>   11.0146    0.0000 </r>
       <r>   11.2001    0.0000 </r>
       <r>   11.5388    0.0000 </r>
      </set>
      <set comment="kpoint 14">
       <r>  -17.5753    1.0000 </r>
       <r>  -17.1862    1.0000 </r>
       <r>  -16.6522    1.0000 </r>
       <r>  -16.0619    1.0000 </r>
       <r>  -16.0015    1.0000 </r>
       <r>  -15.9837    1.0000 </r>
       <r>   -6.8566    1.0000 </r>
       <r>   -5.8701    1.0000 </r>
       <r>   -5.1562    1.0000 </r>
       <r>   -3.8979    1.0000 </r>
       <r>   -3.7949    1.0000 </r>
       <r>   -3.6155    1.0000 </r>
       <r>   -1.9739    1.0000 </r>
       <r>   -1.7470    1.0000 </r>
       <r>   -1.2647    1.0000 </r>
       <r>   -0.9004    1.0000 </r>
       <r>   -0.6225    1.0000 </r>
       <r>   -0.4222    1.0000 </r>
       <r>    0.1492    1.0000 </r>
       <r>    0.2557    1.0000 </r>
       <r>    0.3285    1.0000 </r>
       <r>    0.5713    1.0000 </r>
       <r>    0.7165    1.0000 </r>
       <r>    0.9242    1.0000 </r>
       <r>   10.1771    0.0000 </r>
       <r>   10.6510    0.0000 </r>
       <r>   10.9633    0.0000 </r>
       <r>   11.3049    0.0000 </r>
       <r>   11.7227    0.0000 </r>
      </set>
     </set>
    </set>
   </array>
  </eigenvalues>
  <separator name="orbital magnetization" >
   <v name="MAGDIPOLOUT">      0.00000000      0.00000000      0.00000000</v>
  </separator>
  <dos>
   <i name="efermi">      1.78423241 </i>
   <total>
    <array>
     <dimension dim="1">gridpoints</dimension>
     <dimension dim="2">spin</dimension>
     <field>energy</field>
     <field>total</field>
     <field>integrated</field>
     <set>
      <set comment="spin 1">
       <r>   -19.6805     0.0000     0.0000 </r>
       <r>   -19.5699     0.0000     0.0000 </r>
       <r>   -19.4593     0.0000     0.0000 </r>
       <r>   -19.3487     0.0000     0.0000 </r>
       <r>   -19.2380     0.0000     0.0000 </r>
       <r>   -19.1274     0.0000     0.0000 </r>
       <r>   -19.0168     0.0000     0.0000 </r>
       <r>   -18.9062     0.0000     0.0000 </r>
       <r>   -18.7955     0.0000     0.0000 </r>
       <r>   -18.6849     0.0000     0.0000 </r>
       <r>   -18.5743     0.0000     0.0000 </r>
       <r>   -18.4637     0.0000     0.0000 </r>
       <r>   -18.3530     0.0015     0.0002 </r>
       <r>   -18.2424     0.0455     0.0052 </r>
       <r>   -18.1318     0.2561     0.0335 </r>
       <r>   -18.0211     0.9594     0.1397 </r>
       <r>   -17.9105     2.1807     0.3809 </r>
       <r>   -17.7999     2.2492     0.6297 </r>
       <r>   -17.6893     3.1575     0.9790 </r>
       <r>   -17.5786     6.7077     1.7211 </r>
       <r>   -17.4680     3.7411     2.1349 </r>
       <r>   -17.3574     0.7676     2.2198 </r>
       <r>   -17.2468     1.6696     2.4045 </r>
       <r>   -17.1361     7.3315     3.2156 </r>
       <r>   -17.0255     4.7007     3.7356 </r>
       <r>   -16.9149     0.5614     3.7977 </r>
       <r>   -16.8043     0.9817     3.9063 </r>
       <r>   -16.6936     2.7455     4.2100 </r>
       <r>   -16.5830     6.4579     4.9244 </r>
       <r>   -16.4724     3.7499     5.3393 </r>
       <r>   -16.3618     1.9951     5.5600 </r>
       <r>   -16.2511     2.2037     5.8038 </r>
       <r>   -16.1405     3.0302     6.1390 </r>
       <r>   -16.0299    16.0908     7.9190 </r>
       <r>   -15.9193    27.0525    10.9117 </r>
       <r>   -15.8086     9.2884    11.9393 </r>
       <r>   -15.6980     0.5446    11.9995 </r>
       <r>   -15.5874     0.0044    12.0000 </r>
       <r>   -15.4768     0.0000    12.0000 </r>
       <r>   -15.3661     0.0000    12.0000 </r>
       <r>   -15.2555     0.0000    12.0000 </r>
       <r>   -15.1449     0.0000    12.0000 </r>
       <r>   -15.0343     0.0000    12.0000 </r>
       <r>   -14.9236     0.0000    12.0000 </r>
       <r>   -14.8130     0.0000    12.0000 </r>
       <r>   -14.7024     0.0000    12.0000 </r>
       <r>   -14.5918     0.0000    12.0000 </r>
       <r>   -14.4811     0.0000    12.0000 </r>
       <r>   -14.3705     0.0000    12.0000 </r>
       <r>   -14.2599     0.0000    12.0000 </r>
       <r>   -14.1493     0.0000    12.0000 </r>
       <r>   -14.0386     0.0000    12.0000 </r>
       <r>   -13.9280     0.0000    12.0000 </r>
       <r>   -13.8174     0.0000    12.0000 </r>
       <r>   -13.7068     0.0000    12.0000 </r>
       <r>   -13.5961     0.0000    12.0000 </r>
       <r>   -13.4855     0.0000    12.0000 </r>
       <r>   -13.3749     0.0000    12.0000 </r>
       <r>   -13.2643     0.0000    12.0000 </r>
       <r>   -13.1536     0.0000    12.0000 </r>
       <r>   -13.0430     0.0000    12.0000 </r>
       <r>   -12.9324     0.0000    12.0000 </r>
       <r>   -12.8218     0.0000    12.0000 </r>
       <r>   -12.7111     0.0000    12.0000 </r>
       <r>   -12.6005     0.0000    12.0000 </r>
       <r>   -12.4899     0.0000    12.0000 </r>
       <r>   -12.3793     0.0000    12.0000 </r>
       <r>   -12.2686     0.0000    12.0000 </r>
       <r>   -12.1580     0.0000    12.0000 </r>
       <r>   -12.0474     0.0000    12.0000 </r>
       <r>   -11.9368     0.0000    12.0000 </r>
       <r>   -11.8261     0.0000    12.0000 </r>
       <r>   -11.7155     0.0000    12.0000 </r>
       <r>   -11.6049     0.0000    12.0000 </r>
       <r>   -11.4943     0.0000    12.0000 </r>
       <r>   -11.3836     0.0000    12.0000 </r>
       <r>   -11.2730     0.0000    12.0000 </r>
       <r>   -11.1624     0.0000    12.0000 </r>
       <r>   -11.0518     0.0000    12.0000 </r>
       <r>   -10.9411     0.0000    12.0000 </r>
       <r>   -10.8305     0.0000    12.0000 </r>
       <r>   -10.7199     0.0000    12.0000 </r>
       <r>   -10.6093     0.0000    12.0000 </r>
       <r>   -10.4986     0.0000    12.0000 </r>
       <r>   -10.3880     0.0000    12.0000 </r>
       <r>   -10.2774     0.0000    12.0000 </r>
       <r>   -10.1668     0.0000    12.0000 </r>
       <r>   -10.0561     0.0000    12.0000 </r>
       <r>    -9.9455     0.0000    12.0000 </r>
       <r>    -9.8349     0.0000    12.0000 </r>
       <r>    -9.7243     0.0000    12.0000 </r>
       <r>    -9.6136     0.0000    12.0000 </r>
       <r>    -9.5030     0.0000    12.0000 </r>
       <r>    -9.3924     0.0000    12.0000 </r>
       <r>    -9.2818     0.0000    12.0000 </r>
       <r>    -9.1711     0.0000    12.0000 </r>
       <r>    -9.0605     0.0000    12.0000 </r>
       <r>    -8.9499     0.0000    12.0000 </r>
       <r>    -8.8393     0.0000    12.0000 </r>
       <r>    -8.7286     0.0000    12.0000 </r>
       <r>    -8.6180     0.0000    12.0000 </r>
       <r>    -8.5074     0.0000    12.0000 </r>
       <r>    -8.3968     0.0000    12.0000 </r>
       <r>    -8.2861     0.0000    12.0000 </r>
       <r>    -8.1755     0.0001    12.0000 </r>
       <r>    -8.0649     0.0117    12.0013 </r>
       <r>    -7.9542     0.1110    12.0136 </r>
       <r>    -7.8436     0.1388    12.0289 </r>
       <r>    -7.7330     0.0939    12.0393 </r>
       <r>    -7.6224     0.4169    12.0854 </r>
       <r>    -7.5117     0.9749    12.1933 </r>
       <r>    -7.4011     1.2317    12.3295 </r>
       <r>    -7.2905     1.9612    12.5465 </r>
       <r>    -7.1799     1.0284    12.6603 </r>
       <r>    -7.0692     1.3922    12.8143 </r>
       <r>    -6.9586     4.6228    13.3257 </r>
       <r>    -6.8480     4.7484    13.8510 </r>
       <r>    -6.7374     1.5136    14.0184 </r>
       <r>    -6.6267     0.1966    14.0402 </r>
       <r>    -6.5161     0.7012    14.1177 </r>
       <r>    -6.4055     0.7926    14.2054 </r>
       <r>    -6.2949     0.1187    14.2185 </r>
       <r>    -6.1842     0.0259    14.2214 </r>
       <r>    -6.0736     0.5268    14.2797 </r>
       <r>    -5.9630     3.4249    14.6586 </r>
       <r>    -5.8524     6.9575    15.4282 </r>
       <r>    -5.7417     2.9857    15.7585 </r>
       <r>    -5.6311     0.2037    15.7811 </r>
       <r>    -5.5205     0.0176    15.7830 </r>
       <r>    -5.4099     0.3505    15.8218 </r>
       <r>    -5.2992     0.9958    15.9319 </r>
       <r>    -5.1886     0.9259    16.0344 </r>
       <r>    -5.0780     2.1926    16.2769 </r>
       <r>    -4.9674     3.8971    16.7081 </r>
       <r>    -4.8567     2.9758    17.0373 </r>
       <r>    -4.7461     1.8783    17.2450 </r>
       <r>    -4.6355     1.7998    17.4441 </r>
       <r>    -4.5249     1.9971    17.6651 </r>
       <r>    -4.4142     0.6221    17.7339 </r>
       <r>    -4.3036     0.7475    17.8166 </r>
       <r>    -4.1930     3.0833    18.1577 </r>
       <r>    -4.0824     8.8557    19.1374 </r>
       <r>    -3.9717     9.6809    20.2083 </r>
       <r>    -3.8611     6.6596    20.9450 </r>
       <r>    -3.7505     6.7704    21.6940 </r>
       <r>    -3.6399     5.6647    22.3207 </r>
       <r>    -3.5292     5.6953    22.9507 </r>
       <r>    -3.4186     5.0937    23.5142 </r>
       <r>    -3.3080     2.6700    23.8096 </r>
       <r>    -3.1974     1.4558    23.9706 </r>
       <r>    -3.0867     0.2595    23.9993 </r>
       <r>    -2.9761     0.0060    24.0000 </r>
       <r>    -2.8655     0.0000    24.0000 </r>
       <r>    -2.7549     0.0000    24.0000 </r>
       <r>    -2.6442     0.0000    24.0000 </r>
       <r>    -2.5336     0.0000    24.0000 </r>
       <r>    -2.4230     0.0000    24.0000 </r>
       <r>    -2.3124     0.0000    24.0000 </r>
       <r>    -2.2017     0.0015    24.0002 </r>
       <r>    -2.0911     0.1613    24.0180 </r>
       <r>    -1.9805     2.6157    24.3074 </r>
       <r>    -1.8699     7.9477    25.1866 </r>
       <r>    -1.7592     8.1350    26.0865 </r>
       <r>    -1.6486     6.8236    26.8414 </r>
       <r>    -1.5380     5.3486    27.4331 </r>
       <r>    -1.4274     6.3551    28.1361 </r>
       <r>    -1.3167     8.5005    29.0765 </r>
       <r>    -1.2061     5.9523    29.7350 </r>
       <r>    -1.0955     3.8918    30.1655 </r>
       <r>    -0.9849     4.8401    30.7009 </r>
       <r>    -0.8742     8.3886    31.6289 </r>
       <r>    -0.7636     6.9447    32.3972 </r>
       <r>    -0.6530     7.3730    33.2128 </r>
       <r>    -0.5424     6.3304    33.9131 </r>
       <r>    -0.4317     6.2557    34.6052 </r>
       <r>    -0.3211     5.9560    35.2640 </r>
       <r>    -0.2105     8.0417    36.1537 </r>
       <r>    -0.0999     9.8433    37.2426 </r>
       <r>     0.0108     8.1715    38.1466 </r>
       <r>     0.1214     8.9385    39.1354 </r>
       <r>     0.2320     9.4882    40.1850 </r>
       <r>     0.3426    10.6932    41.3679 </r>
       <r>     0.4533     8.7549    42.3365 </r>
       <r>     0.5639     5.7951    42.9775 </r>
       <r>     0.6745     6.2860    43.6729 </r>
       <r>     0.7851     5.2731    44.2563 </r>
       <r>     0.8958     6.6493    44.9919 </r>
       <r>     1.0064     6.7064    45.7338 </r>
       <r>     1.1170     7.8212    46.5990 </r>
       <r>     1.2276     8.3111    47.5184 </r>
       <r>     1.3383     3.7901    47.9377 </r>
       <r>     1.4489     0.5497    47.9985 </r>
       <r>     1.5595     0.0136    48.0000 </r>
       <r>     1.6702     0.0000    48.0000 </r>
       <r>     1.7808     0.0000    48.0000 </r>
       <r>     1.8914     0.0000    48.0000 </r>
       <r>     2.0020     0.0000    48.0000 </r>
       <r>     2.1127     0.0000    48.0000 </r>
       <r>     2.2233     0.0000    48.0000 </r>
       <r>     2.3339     0.0000    48.0000 </r>
       <r>     2.4445     0.0000    48.0000 </r>
       <r>     2.5552     0.0000    48.0000 </r>
       <r>     2.6658     0.0000    48.0000 </r>
       <r>     2.7764     0.0000    48.0000 </r>
       <r>     2.8870     0.0000    48.0000 </r>
       <r>     2.9977     0.0000    48.0000 </r>
       <r>     3.1083     0.0000    48.0000 </r>
       <r>     3.2189     0.0000    48.0000 </r>
       <r>     3.3295     0.0000    48.0000 </r>
       <r>     3.4402     0.0000    48.0000 </r>
       <r>     3.5508     0.0000    48.0000 </r>
       <r>     3.6614     0.0000    48.0000 </r>
       <r>     3.7720     0.0000    48.0000 </r>
       <r>     3.8827     0.0000    48.0000 </r>
       <r>     3.9933     0.0000    48.0000 </r>
       <r>     4.1039     0.0000    48.0000 </r>
       <r>     4.2145     0.0000    48.0000 </r>
       <r>     4.3252     0.0000    48.0000 </r>
       <r>     4.4358     0.0000    48.0000 </r>
       <r>     4.5464     0.0000    48.0000 </r>
       <r>     4.6570     0.0000    48.0000 </r>
       <r>     4.7677     0.0000    48.0000 </r>
       <r>     4.8783     0.0000    48.0000 </r>
       <r>     4.9889     0.0000    48.0000 </r>
       <r>     5.0995     0.0000    48.0000 </r>
       <r>     5.2102     0.0000    48.0000 </r>
       <r>     5.3208     0.0000    48.0000 </r>
       <r>     5.4314     0.0000    48.0000 </r>
       <r>     5.5420     0.0000    48.0000 </r>
       <r>     5.6527     0.0000    48.0000 </r>
       <r>     5.7633     0.0000    48.0000 </r>
       <r>     5.8739     0.0000    48.0000 </r>
       <r>     5.9845     0.0000    48.0000 </r>
       <r>     6.0952     0.0000    48.0000 </r>
       <r>     6.2058     0.0000    48.0000 </r>
       <r>     6.3164     0.0000    48.0000 </r>
       <r>     6.4270     0.0000    48.0000 </r>
       <r>     6.5377     0.0000    48.0000 </r>
       <r>     6.6483     0.0000    48.0000 </r>
       <r>     6.7589     0.0000    48.0000 </r>
       <r>     6.8695     0.0000    48.0000 </r>
       <r>     6.9802     0.0000    48.0000 </r>
       <r>     7.0908     0.0001    48.0000 </r>
       <r>     7.2014     0.0118    48.0013 </r>
       <r>     7.3120     0.1112    48.0136 </r>
       <r>     7.4227     0.1367    48.0287 </r>
       <r>     7.5333     0.0223    48.0312 </r>
       <r>     7.6439     0.0004    48.0313 </r>
       <r>     7.7545     0.0029    48.0316 </r>
       <r>     7.8652     0.0866    48.0412 </r>
       <r>     7.9758     0.3138    48.0759 </r>
       <r>     8.0864     0.1845    48.0963 </r>
       <r>     8.1970     0.4948    48.1510 </r>
       <r>     8.3077     0.9305    48.2540 </r>
       <r>     8.4183     0.2395    48.2805 </r>
       <r>     8.5289     0.0557    48.2866 </r>
       <r>     8.6395     0.8009    48.3752 </r>
       <r>     8.7502     1.8602    48.5810 </r>
       <r>     8.8608     0.6488    48.6528 </r>
       <r>     8.9714     0.0312    48.6562 </r>
       <r>     9.0820     0.0006    48.6563 </r>
       <r>     9.1927     0.0283    48.6594 </r>
       <r>     9.3033     0.2494    48.6870 </r>
       <r>     9.4139     0.5700    48.7501 </r>
       <r>     9.5245     1.0727    48.8687 </r>
       <r>     9.6352     1.4406    49.0281 </r>
       <r>     9.7458     3.0571    49.3663 </r>
       <r>     9.8564     2.9843    49.6964 </r>
       <r>     9.9670     1.7637    49.8915 </r>
       <r>    10.0777     0.5495    49.9523 </r>
       <r>    10.1883     1.0713    50.0709 </r>
       <r>    10.2989     1.3742    50.2229 </r>
       <r>    10.4095     2.0436    50.4490 </r>
       <r>    10.5202     3.1189    50.7940 </r>
       <r>    10.6308     5.0323    51.3507 </r>
       <r>    10.7414     9.0510    52.3519 </r>
       <r>    10.8520     6.2209    53.0401 </r>
       <r>    10.9627     6.5035    53.7596 </r>
       <r>    11.0733     7.3879    54.5769 </r>
       <r>    11.1839     3.0336    54.9125 </r>
       <r>    11.2945     3.6515    55.3164 </r>
       <r>    11.4052     5.6488    55.9413 </r>
       <r>    11.5158     6.3235    56.6409 </r>
       <r>    11.6264     5.3669    57.2346 </r>
       <r>    11.7371     3.3669    57.6070 </r>
       <r>    11.8477     2.1774    57.8479 </r>
       <r>    11.9583     0.7442    57.9302 </r>
       <r>    12.0689     0.4951    57.9850 </r>
       <r>    12.1796     0.1311    57.9995 </r>
       <r>    12.2902     0.0044    58.0000 </r>
       <r>    12.4008     0.0000    58.0000 </r>
       <r>    12.5114     0.0000    58.0000 </r>
       <r>    12.6221     0.0000    58.0000 </r>
       <r>    12.7327     0.0000    58.0000 </r>
       <r>    12.8433     0.0000    58.0000 </r>
       <r>    12.9539     0.0000    58.0000 </r>
       <r>    13.0646     0.0000    58.0000 </r>
       <r>    13.1752     0.0000    58.0000 </r>
       <r>    13.2858     0.0000    58.0000 </r>
       <r>    13.3964     0.0000    58.0000 </r>
       <r>    13.5071     0.0000    58.0000 </r>
      </set>
     </set>
    </array>
   </total>
  </dos>
 </calculation>
 <structure name="finalpos" >
  <crystal>
   <varray name="basis" >
    <v>       4.87342988       0.00000000       0.00000000 </v>
    <v>      -2.43671494       4.22051408       0.00000000 </v>
    <v>       0.00000000       0.00000000       5.37418982 </v>
   </varray>
   <i name="volume">    110.53837516 </i>
   <varray name="rec_basis" >
    <v>       0.20519429       0.11846898      -0.00000000 </v>
    <v>       0.00000000       0.23693796       0.00000000 </v>
    <v>       0.00000000      -0.00000000       0.18607456 </v>
   </varray>
  </crystal>
  <varray name="positions" >
   <v>       0.46479986       0.00023382       0.66661050 </v>
   <v>       0.99976618       0.46456604       0.33327717 </v>
   <v>       0.53543396       0.53520014       0.99994383 </v>
   <v>       0.13544637       0.72397782       0.55423807 </v>
   <v>       0.27602218       0.41146855       0.22090474 </v>
   <v>       0.58853145       0.86455363       0.88757141 </v>
   <v>       0.41154217       0.27601279       0.77919386 </v>
   <v>       0.86447063       0.58845783       0.11252719 </v>
   <v>       0.72398721       0.13552937       0.44586053 </v>
  </varray>
 </structure>
</modeling>
