<?xml version="1.0" encoding="ISO-8859-1"?>
<modeling>
 <generator>
  <i name="program" type="string">vasp </i>
  <i name="version" type="string">6.4.1  </i>
  <i name="subversion" type="string">05Apr23 (build Sep  6 2023 20:49:31) complex                          parallel </i>
  <i name="platform" type="string">LinuxNV </i>
  <i name="date" type="string">2023 10 19 </i>
  <i name="time" type="string">14:05:34 </i>
 </generator>
 <incar>
  <i type="string" name="PREC">Accurate</i>
  <i type="string" name="ALGO">Fast</i>
  <i name="EDIFF">      0.00000001</i>
  <i name="ENCUT">    500.00000000</i>
  <i type="int" name="ISMEAR">     0</i>
  <i name="SIGMA">      0.10000000</i>
  <i type="logical" name="LEPSILON"> T  </i>
 </incar>
 <primitive_cell>
  <structure name="primitive_cell" >
   <crystal>
    <varray name="basis" >
     <v>       4.87342988       0.00000000       0.00000000 </v>
     <v>      -2.43671494       4.22051408       0.00000000 </v>
     <v>       0.00000000       0.00000000       5.37418982 </v>
    </varray>
    <i name="volume">    110.53837516 </i>
    <varray name="rec_basis" >
     <v>       0.20519429       0.11846898      -0.00000000 </v>
     <v>       0.00000000       0.23693796       0.00000000 </v>
     <v>       0.00000000      -0.00000000       0.18607456 </v>
    </varray>
   </crystal>
   <varray name="positions" >
    <v>       0.46471133       0.00005676       0.66674904 </v>
    <v>       0.00002838       0.46469003       0.33329215 </v>
    <v>       0.53529575       0.53532413       0.99995882 </v>
    <v>       0.13566567       0.72386811       0.55421759 </v>
    <v>       0.27594773       0.41140765       0.22077033 </v>
    <v>       0.58868914       0.86466199       0.88757839 </v>
    <v>       0.41121315       0.27590308       0.77917338 </v>
    <v>       0.86448419       0.58839694       0.11239279 </v>
    <v>       0.72393787       0.13563773       0.44586751 </v>
   </varray>
  </structure>
  <varray name="primitive_index" >
   <v type="int" >        1 </v>
   <v type="int" >        2 </v>
   <v type="int" >        3 </v>
   <v type="int" >        4 </v>
   <v type="int" >        5 </v>
   <v type="int" >        6 </v>
   <v type="int" >        7 </v>
   <v type="int" >        8 </v>
   <v type="int" >        9 </v>
  </varray>
 </primitive_cell>
 <kpoints>
  <generation param="Gamma">
   <v type="int" name="divisions">       4        4        4 </v>
   <v name="usershift">      0.00000000       0.00000000       0.00000000 </v>
   <v name="genvec1">      0.25000000       0.00000000       0.00000000 </v>
   <v name="genvec2">      0.00000000       0.25000000       0.00000000 </v>
   <v name="genvec3">      0.00000000       0.00000000       0.25000000 </v>
   <v name="shift">      0.00000000       0.00000000       0.00000000 </v>
  </generation>
  <varray name="kpointlist" >
   <v>       0.00000000       0.00000000       0.00000000 </v>
   <v>       0.25000000       0.00000000       0.00000000 </v>
   <v>       0.00000000       0.25000000       0.00000000 </v>
   <v>      -0.25000000       0.25000000       0.00000000 </v>
   <v>       0.50000000       0.00000000       0.00000000 </v>
   <v>       0.00000000       0.50000000       0.00000000 </v>
   <v>       0.50000000       0.50000000       0.00000000 </v>
   <v>       0.25000000       0.25000000       0.00000000 </v>
   <v>      -0.25000000       0.50000000       0.00000000 </v>
   <v>       0.50000000       0.25000000       0.00000000 </v>
   <v>       0.00000000       0.00000000       0.25000000 </v>
   <v>       0.25000000       0.00000000       0.25000000 </v>
   <v>       0.00000000       0.25000000       0.25000000 </v>
   <v>      -0.25000000       0.25000000       0.25000000 </v>
   <v>      -0.25000000       0.00000000       0.25000000 </v>
   <v>       0.00000000      -0.25000000       0.25000000 </v>
   <v>       0.25000000      -0.25000000       0.25000000 </v>
   <v>       0.50000000       0.00000000       0.25000000 </v>
   <v>       0.00000000       0.50000000       0.25000000 </v>
   <v>       0.50000000       0.50000000       0.25000000 </v>
   <v>       0.25000000       0.25000000       0.25000000 </v>
   <v>      -0.25000000       0.50000000       0.25000000 </v>
   <v>       0.50000000       0.25000000       0.25000000 </v>
   <v>      -0.25000000      -0.25000000       0.25000000 </v>
   <v>       0.25000000       0.50000000       0.25000000 </v>
   <v>       0.50000000      -0.25000000       0.25000000 </v>
   <v>       0.00000000       0.00000000       0.50000000 </v>
   <v>       0.25000000       0.00000000       0.50000000 </v>
   <v>       0.00000000       0.25000000       0.50000000 </v>
   <v>      -0.25000000       0.25000000       0.50000000 </v>
   <v>       0.50000000       0.00000000       0.50000000 </v>
   <v>       0.00000000       0.50000000       0.50000000 </v>
   <v>       0.50000000       0.50000000       0.50000000 </v>
   <v>       0.25000000       0.25000000       0.50000000 </v>
   <v>      -0.25000000       0.50000000       0.50000000 </v>
   <v>       0.50000000       0.25000000       0.50000000 </v>
  </varray>
  <varray name="weights" >
   <v>       0.01562500 </v>
   <v>       0.03125000 </v>
   <v>       0.03125000 </v>
   <v>       0.03125000 </v>
   <v>       0.01562500 </v>
   <v>       0.01562500 </v>
   <v>       0.01562500 </v>
   <v>       0.03125000 </v>
   <v>       0.03125000 </v>
   <v>       0.03125000 </v>
   <v>       0.03125000 </v>
   <v>       0.03125000 </v>
   <v>       0.03125000 </v>
   <v>       0.03125000 </v>
   <v>       0.03125000 </v>
   <v>       0.03125000 </v>
   <v>       0.03125000 </v>
   <v>       0.03125000 </v>
   <v>       0.03125000 </v>
   <v>       0.03125000 </v>
   <v>       0.03125000 </v>
   <v>       0.03125000 </v>
   <v>       0.03125000 </v>
   <v>       0.03125000 </v>
   <v>       0.03125000 </v>
   <v>       0.03125000 </v>
   <v>       0.01562500 </v>
   <v>       0.03125000 </v>
   <v>       0.03125000 </v>
   <v>       0.03125000 </v>
   <v>       0.01562500 </v>
   <v>       0.01562500 </v>
   <v>       0.01562500 </v>
   <v>       0.03125000 </v>
   <v>       0.03125000 </v>
   <v>       0.03125000 </v>
  </varray>
 </kpoints>
 <parameters>
  <separator name="general" >
   <i type="string" name="SYSTEM">unknown system</i>
   <i type="logical" name="LCOMPAT"> F  </i>
  </separator>
  <separator name="electronic" >
   <i type="string" name="PREC">accura</i>
   <i name="ENMAX">    500.00000000</i>
   <i name="ENAUG">    605.39200000</i>
   <i name="EDIFF">      0.00000001</i>
   <i type="int" name="IALGO">    68</i>
   <i type="int" name="IWAVPR">    10</i>
   <i type="int" name="NBANDS">    29</i>
   <i type="int" name="NBANDSLOW">    -1</i>
   <i type="int" name="NBANDSHIGH">    -1</i>
   <i name="NELECT">     48.00000000</i>
   <i type="int" name="TURBO">     0</i>
   <i type="int" name="IRESTART">     0</i>
   <i type="int" name="NREBOOT">     0</i>
   <i type="int" name="NMIN">     0</i>
   <i name="EREF">      0.00000000</i>
   <separator name="electronic smearing" >
    <i type="int" name="ISMEAR">     0</i>
    <i name="SIGMA">      0.10000000</i>
    <i name="KSPACING">      0.50000000</i>
    <i type="logical" name="KGAMMA"> T  </i>
    <i type="logical" name="KBLOWUP"> T  </i>
   </separator>
   <separator name="electronic projectors" >
    <i type="logical" name="LREAL"> F  </i>
    <v name="ROPT">      0.00000000      0.00000000</v>
    <i type="int" name="LMAXPAW">  -100</i>
    <i type="int" name="LMAXMIX">     2</i>
    <i type="logical" name="NLSPLINE"> F  </i>
   </separator>
   <separator name="electronic startup" >
    <i type="int" name="ISTART">     0</i>
    <i type="int" name="ICHARG">     2</i>
    <i type="int" name="INIWAV">     1</i>
   </separator>
   <separator name="electronic spin" >
    <i type="int" name="ISPIN">     1</i>
    <i type="logical" name="LNONCOLLINEAR"> F  </i>
    <v name="MAGMOM">      1.00000000      1.00000000      1.00000000      1.00000000      1.00000000      1.00000000      1.00000000      1.00000000      1.00000000</v>
    <i name="NUPDOWN">     -1.00000000</i>
    <i type="logical" name="LSORBIT"> F  </i>
    <v name="SAXIS">      0.00000000      0.00000000      1.00000000</v>
    <i type="logical" name="LSPIRAL"> F  </i>
    <v name="QSPIRAL">      0.00000000      0.00000000      0.00000000</v>
    <i type="logical" name="LZEROZ"> F  </i>
   </separator>
   <separator name="electronic exchange-correlation" >
    <i type="logical" name="LASPH"> F  </i>
    <i type="logical" name="LMETAGGA"> F  </i>
   </separator>
   <separator name="electronic convergence" >
    <i type="int" name="NELM">    60</i>
    <i type="int" name="NELMDL">    -5</i>
    <i type="int" name="NELMIN">     2</i>
    <i name="ENINI">    500.00000000</i>
    <separator name="electronic convergence detail" >
     <i type="logical" name="LDIAG"> T  </i>
     <i type="logical" name="LSUBROT"> F  </i>
     <i name="WEIMIN">      0.00000000</i>
     <i name="EBREAK">      0.00000000</i>
     <i name="DEPER">      0.30000000</i>
     <i type="int" name="NRMM">     4</i>
     <i name="TIME">      0.40000000</i>
    </separator>
   </separator>
   <separator name="electronic mixer" >
    <i name="AMIX">      0.40000000</i>
    <i name="BMIX">      1.00000000</i>
    <i name="AMIN">      0.10000000</i>
    <i name="AMIX_MAG">      1.60000000</i>
    <i name="BMIX_MAG">      1.00000000</i>
    <separator name="electronic mixer details" >
     <i type="int" name="IMIX">     4</i>
     <i type="logical" name="MIXFIRST"> F  </i>
     <i type="int" name="MAXMIX">   -45</i>
     <i name="WC">    100.00000000</i>
     <i type="int" name="INIMIX">     1</i>
     <i type="int" name="MIXPRE">     1</i>
     <i type="int" name="MREMOVE">     5</i>
    </separator>
   </separator>
   <separator name="electronic dipolcorrection" >
    <i type="logical" name="LDIPOL"> F  </i>
    <i type="logical" name="LMONO"> F  </i>
    <i type="int" name="IDIPOL">     0</i>
    <i name="EPSILON">      1.00000000</i>
    <v name="DIPOL">   -100.00000000   -100.00000000   -100.00000000</v>
    <i name="EFIELD">      0.00000000</i>
   </separator>
  </separator>
  <separator name="grids" >
   <i type="int" name="NGX">    36</i>
   <i type="int" name="NGY">    36</i>
   <i type="int" name="NGZ">    40</i>
   <i type="int" name="NGXF">    72</i>
   <i type="int" name="NGYF">    72</i>
   <i type="int" name="NGZF">    80</i>
   <i type="logical" name="ADDGRID"> F  </i>
  </separator>
  <separator name="ionic" >
   <i type="int" name="NSW">     0</i>
   <i type="int" name="IBRION">    -1</i>
   <i type="int" name="MDALGO">     0</i>
   <i type="int" name="ISIF">     2</i>
   <i name="PSTRESS">      0.00000000</i>
   <i name="EDIFFG">      0.00000010</i>
   <i type="int" name="NFREE">     0</i>
   <i name="POTIM">      0.50000000</i>
   <i name="SMASS">     -3.00000000</i>
   <i name="SCALEE">      1.00000000</i>
  </separator>
  <separator name="ionic md" >
   <i name="TEBEG">      0.00010000</i>
   <i name="TEEND">      0.00010000</i>
   <i type="int" name="NBLOCK">     1</i>
   <i type="int" name="KBLOCK">     1</i>
   <i type="int" name="NPACO">   256</i>
   <i name="APACO">     10.00000000</i>
  </separator>
  <separator name="symmetry" >
   <i type="int" name="ISYM">     2</i>
   <i name="SYMPREC">      0.00001000</i>
  </separator>
  <separator name="dos" >
   <i type="int" name="LORBIT">     0</i>
   <v name="RWIGS">     -1.00000000     -1.00000000</v>
   <i type="int" name="NEDOS">   301</i>
   <i name="EMIN">     10.00000000</i>
   <i name="EMAX">    -10.00000000</i>
   <i name="EFERMI">      0.00000000</i>
  </separator>
  <separator name="writing" >
   <i type="int" name="NWRITE">     2</i>
   <i type="logical" name="LWAVE"> T  </i>
   <i type="logical" name="LDOWNSAMPLE"> F  </i>
   <i type="logical" name="LCHARG"> T  </i>
   <i type="logical" name="LPARD"> F  </i>
   <i type="logical" name="LVTOT"> F  </i>
   <i type="logical" name="LVHAR"> F  </i>
   <i type="logical" name="LELF"> F  </i>
   <i type="logical" name="LOPTICS"> F  </i>
   <v name="STM">      0.00000000      0.00000000      0.00000000      0.00000000      0.00000000      0.00000000      0.00000000</v>
  </separator>
  <separator name="performance" >
   <i type="int" name="NPAR">     1</i>
   <i type="int" name="NSIM">     4</i>
   <i type="int" name="NBLK">    -1</i>
   <i type="logical" name="LPLANE"> T  </i>
   <i type="logical" name="LSCALAPACK"> T  </i>
   <i type="logical" name="LSCAAWARE"> F  </i>
   <i type="logical" name="LSCALU"> F  </i>
   <i type="logical" name="LASYNC"> F  </i>
   <i type="logical" name="LORBITALREAL"> F  </i>
  </separator>
  <separator name="miscellaneous" >
   <i type="int" name="IDIOT">     3</i>
   <i type="int" name="PHON_NSTRUCT">    -1</i>
   <i type="logical" name="LMUSIC"> F  </i>
   <v name="POMASS">     28.08500000     16.00000000</v>
   <v name="DARWINR">      0.00000000      0.00000000</v>
   <v name="DARWINV">      1.00000000      1.00000000</v>
   <i type="logical" name="LCORR"> T  </i>
  </separator>
  <i type="logical" name="GGA_COMPAT"> T  </i>
  <i type="logical" name="LBERRY"> F  </i>
  <i type="int" name="ICORELEVEL">     0</i>
  <i type="logical" name="LDAU"> F  </i>
  <i type="int" name="I_CONSTRAINED_M">     0</i>
  <separator name="electronic exchange-correlation" >
   <i type="string" name="GGA">--</i>
   <i type="int" name="VOSKOWN">     0</i>
   <i type="logical" name="LHFCALC"> F  </i>
   <i type="string" name="PRECFOCK"></i>
   <i type="logical" name="LSYMGRAD"> F  </i>
   <i type="logical" name="LHFONE"> F  </i>
   <i type="logical" name="LRHFCALC"> F  </i>
   <i type="logical" name="LTHOMAS"> F  </i>
   <i type="logical" name="LMODELHF"> F  </i>
   <i type="logical" name="LFOCKACE"> F  </i>
   <i name="ENCUT4O">     -1.00000000</i>
   <i type="int" name="EXXOEP">     0</i>
   <i type="int" name="FOURORBIT">     0</i>
   <i name="AEXX">      0.00000000</i>
   <i name="HFALPHA">      0.00000000</i>
   <i name="MCALPHA">      0.00000000</i>
   <i name="ALDAX">      1.00000000</i>
   <i name="AGGAX">      1.00000000</i>
   <i name="ALDAC">      1.00000000</i>
   <i name="AGGAC">      1.00000000</i>
   <i type="int" name="NKREDX">     1</i>
   <i type="int" name="NKREDY">     1</i>
   <i type="int" name="NKREDZ">     1</i>
   <i type="logical" name="SHIFTRED"> F  </i>
   <i type="logical" name="ODDONLY"> F  </i>
   <i type="logical" name="EVENONLY"> F  </i>
   <i type="int" name="LMAXFOCK">     0</i>
   <i type="int" name="NMAXFOCKAE">     0</i>
   <i type="logical" name="LFOCKAEDFT"> F  </i>
   <i name="HFSCREEN">      0.00000000</i>
   <i name="HFSCREENC">      0.00000000</i>
   <i type="int" name="NBANDSGWLOW">     0</i>
  </separator>
  <separator name="vdW DFT" >
   <i type="logical" name="LUSE_VDW"> F  </i>
   <i type="int" name="IVDW_NL">     1</i>
   <i type="logical" name="LSPIN_VDW"> F  </i>
   <i name="Zab_VDW">     -0.84910000</i>
   <i name="PARAM1">      0.12340000</i>
   <i name="PARAM2">      1.00000000</i>
   <i name="PARAM3">      0.00000000</i>
  </separator>
  <separator name="model GW" >
   <i type="int" name="MODEL_GW">     0</i>
   <i name="MODEL_EPS0">      7.36922501</i>
   <i name="MODEL_ALPHA">      1.00000000</i>
  </separator>
  <separator name="linear response parameters" >
   <i type="logical" name="LEPSILON"> T  </i>
   <i type="logical" name="LRPA"> F  </i>
   <i type="logical" name="LNABLA"> F  </i>
   <i type="logical" name="LVEL"> F  </i>
   <i name="CSHIFT">      0.10000000</i>
   <i name="OMEGAMAX">     -1.00000000</i>
   <i name="DEG_THRESHOLD">      0.00200000</i>
   <i name="RTIME">     -0.10000000</i>
   <i name="WPLASMAI">      0.00000000</i>
   <v name="DFIELD">      0.00000000      0.00000000      0.00000000</v>
   <v name="WPLASMA">      0.00000000      0.00000000      0.00000000      0.00000000      0.00000000      0.00000000      0.00000000      0.00000000      0.00000000</v>
  </separator>
  <separator name="orbital magnetization" >
   <i type="logical" name="NUCIND"> F  </i>
   <v name="MAGPOS">      0.00000000      0.00000000      0.00000000</v>
   <i type="logical" name="LNICSALL"> T  </i>
   <i type="logical" name="ORBITALMAG"> F  </i>
   <i type="logical" name="LMAGBLOCH"> F  </i>
   <i type="logical" name="LCHIMAG"> F  </i>
   <i type="logical" name="LGAUGE"> T  </i>
   <i type="int" name="MAGATOM">     0</i>
   <v name="MAGDIPOL">      0.00000000      0.00000000      0.00000000</v>
   <v name="AVECCONST">      0.00000000      0.00000000      0.00000000</v>
  </separator>
  <separator name="response functions" >
   <i type="logical" name="LALL_IN_ONE"> F  </i>
   <i type="int" name="IALL_IN_ONE">    -1</i>
   <i type="int" name="NBANDS_WAVE">    -1</i>
   <i type="logical" name="LFINITE_TEMPERATURE"> F  </i>
   <i type="logical" name="LADDER"> F  </i>
   <i type="logical" name="LRPAFORCE"> F  </i>
   <i type="logical" name="LFXC"> F  </i>
   <i type="logical" name="LHARTREE"> T  </i>
   <i type="int" name="IBSE">     0</i>
   <v type="int" name="KPOINT">    -1     0     0     0</v>
   <i type="logical" name="LTCTC"> F  </i>
   <i type="logical" name="LTCTE"> F  </i>
   <i type="logical" name="LTETE"> F  </i>
   <i type="logical" name="LTRIPLET"> F  </i>
   <i type="logical" name="LFXCEPS"> F  </i>
   <i type="logical" name="LFXHEG"> F  </i>
   <i type="int" name="NATURALO">     2</i>
   <i type="logical" name="LHOLEGF"> F  </i>
   <i type="logical" name="L2ORDER"> F  </i>
   <i type="logical" name="LDMP1"> F  </i>
   <i type="logical" name="LMP2LT"> F  </i>
   <i type="logical" name="LSMP2LT"> F  </i>
   <i type="logical" name="LGWLF"> F  </i>
   <i name="ENCUTGW">     -1.60000002</i>
   <i name="ENCUTGWSOFT">     -1.60000002</i>
   <i name="ENCUTLF">     -1.00000000</i>
   <i type="logical" name="LESF_SPLINES"> F  </i>
   <i type="int" name="LMAXMP2">    -1</i>
   <i name="SCISSOR">      0.00000000</i>
   <i type="int" name="NOMEGA">     0</i>
   <i type="int" name="NOMEGAR">     0</i>
   <i type="int" name="NBANDSGW">    -1</i>
   <i type="int" name="NBANDSO">    -1</i>
   <i type="int" name="NBANDSV">    -1</i>
   <i type="int" name="NELMGW">     1</i>
   <i type="int" name="NELMHF">     1</i>
   <i type="int" name="DIM">     3</i>
   <i type="int" name="IESPILON">     4</i>
   <i type="int" name="ANTIRES">     0</i>
   <i name="OMEGAMAX">    -30.00000000</i>
   <i name="OMEGAMIN">    -30.00000000</i>
   <i name="OMEGATL">   -200.00000000</i>
   <i type="int" name="OMEGAGRID">     0</i>
   <i name="CSHIFT">     -0.10000000</i>
   <i type="logical" name="LSELFENERGY"> F  </i>
   <i type="logical" name="LSPECTRAL"> F  </i>
   <i type="logical" name="LSPECTRALGW"> F  </i>
   <i type="logical" name="LSINGLES"> F  </i>
   <i type="logical" name="LFERMIGW"> F  </i>
   <i type="logical" name="ODDONLYGW"> F  </i>
   <i type="logical" name="EVENONLYGW"> F  </i>
   <i type="int" name="NKREDLFX">     1</i>
   <i type="int" name="NKREDLFY">     1</i>
   <i type="int" name="NKREDLFZ">     1</i>
   <i type="int" name="MAXMEM">  2800</i>
   <i type="int" name="TELESCOPE">     0</i>
   <i type="int" name="NTAUPAR">    -1</i>
   <i type="int" name="NOMEGAPAR">    -1</i>
   <i name="DAMP_NEWTON">      0.80000001</i>
   <i name="LAMBDA">      1.00000000</i>
  </separator>
  <separator name="External order field" >
   <i name="OFIELD_KAPPA">      0.00000000</i>
   <v name="OFIELD_K">      0.00000000      0.00000000      0.00000000</v>
   <i name="OFIELD_Q6_NEAR">      0.00000000</i>
   <i name="OFIELD_Q6_FAR">      0.00000000</i>
   <i name="OFIELD_A">      0.00000000</i>
  </separator>
  <separator name="optional k-points parameters" >
   <i type="int" name="KPOINTS_OPT_MODE">     1</i>
   <i type="logical" name="LKPOINTS_OPT"> F  </i>
  </separator>
 </parameters>
 <atominfo>
  <atoms>       9 </atoms>
  <types>       2 </types>
  <array name="atoms" >
   <dimension dim="1">ion</dimension>
   <field type="string">element</field>
   <field type="int">atomtype</field>
   <set>
    <rc><c>Si</c><c>   1</c></rc>
    <rc><c>Si</c><c>   1</c></rc>
    <rc><c>Si</c><c>   1</c></rc>
    <rc><c>O </c><c>   2</c></rc>
    <rc><c>O </c><c>   2</c></rc>
    <rc><c>O </c><c>   2</c></rc>
    <rc><c>O </c><c>   2</c></rc>
    <rc><c>O </c><c>   2</c></rc>
    <rc><c>O </c><c>   2</c></rc>
   </set>
  </array>
  <array name="atomtypes" >
   <dimension dim="1">type</dimension>
   <field type="int">atomspertype</field>
   <field type="string">element</field>
   <field>mass</field>
   <field>valence</field>
   <field type="string">pseudopotential</field>
   <set>
    <rc><c>   3</c><c>Si</c><c>     28.08500000</c><c>      4.00000000</c><c>  PAW_PBE Si 05Jan2001                  </c></rc>
    <rc><c>   6</c><c>O </c><c>     16.00000000</c><c>      6.00000000</c><c>  PAW_PBE O 08Apr2002                   </c></rc>
   </set>
  </array>
 </atominfo>
 <structure name="initialpos" >
  <crystal>
   <varray name="basis" >
    <v>       4.87342988       0.00000000       0.00000000 </v>
    <v>      -2.43671494       4.22051408       0.00000000 </v>
    <v>       0.00000000       0.00000000       5.37418982 </v>
   </varray>
   <i name="volume">    110.53837516 </i>
   <varray name="rec_basis" >
    <v>       0.20519429       0.11846898      -0.00000000 </v>
    <v>       0.00000000       0.23693796       0.00000000 </v>
    <v>       0.00000000      -0.00000000       0.18607456 </v>
   </varray>
  </crystal>
  <varray name="positions" >
   <v>       0.46471133       0.00005676       0.66674904 </v>
   <v>       0.00002838       0.46469003       0.33329215 </v>
   <v>       0.53529575       0.53532413       0.99995882 </v>
   <v>       0.13566567       0.72386811       0.55421759 </v>
   <v>       0.27594773       0.41140765       0.22077033 </v>
   <v>       0.58868914       0.86466199       0.88757839 </v>
   <v>       0.41121315       0.27590308       0.77917338 </v>
   <v>       0.86448419       0.58839694       0.11239279 </v>
   <v>       0.72393787       0.13563773       0.44586751 </v>
  </varray>
 </structure>
 <calculation>
  <scstep>
   <time name="dav">    1.13    1.13</time>
   <time name="total">    1.17    1.15</time>
   <energy>
    <i name="alphaZ">     71.30271804 </i>
    <i name="ewald">  -1930.19441682 </i>
    <i name="hartreedc">   -909.39694463 </i>
    <i name="XCdc">    141.70969161 </i>
    <i name="pawpsdc">   2343.66826019 </i>
    <i name="pawaedc">  -2301.68043871 </i>
    <i name="eentropy">     -0.00949222 </i>
    <i name="bandstr">    -14.49749974 </i>
    <i name="atom">   2903.33737771 </i>
    <i name="e_fr_energy">    304.23925542 </i>
    <i name="e_wo_entrp">    304.24874765 </i>
    <i name="e_0_energy">    304.24400154 </i>
   </energy>
  </scstep>
  <scstep>
   <time name="dav">    1.24    1.25</time>
   <time name="total">    1.24    1.25</time>
   <energy>
    <i name="e_fr_energy">    -61.45348901 </i>
    <i name="e_wo_entrp">    -61.45348901 </i>
    <i name="e_0_energy">    -61.45348901 </i>
   </energy>
  </scstep>
  <scstep>
   <time name="dav">    1.17    1.17</time>
   <time name="total">    1.17    1.17</time>
   <energy>
    <i name="e_fr_energy">    -80.17832701 </i>
    <i name="e_wo_entrp">    -80.17832701 </i>
    <i name="e_0_energy">    -80.17832701 </i>
   </energy>
  </scstep>
  <scstep>
   <time name="dav">    1.17    1.18</time>
   <time name="total">    1.18    1.18</time>
   <energy>
    <i name="e_fr_energy">    -80.41868512 </i>
    <i name="e_wo_entrp">    -80.41868512 </i>
    <i name="e_0_energy">    -80.41868512 </i>
   </energy>
  </scstep>
  <scstep>
   <time name="dav">    1.14    1.15</time>
   <time name="total">    1.33    1.30</time>
   <energy>
    <i name="e_fr_energy">    -80.42332675 </i>
    <i name="e_wo_entrp">    -80.42332675 </i>
    <i name="e_0_energy">    -80.42332675 </i>
   </energy>
  </scstep>
  <scstep>
   <time name="diag">    0.12    0.12</time>
   <time name="diis">    1.32    1.33</time>
   <time name="orth">    0.01    0.01</time>
   <time name="total">    1.67    1.61</time>
   <energy>
    <i name="e_fr_energy">    -70.67420005 </i>
    <i name="e_wo_entrp">    -70.67420005 </i>
    <i name="e_0_energy">    -70.67420005 </i>
   </energy>
  </scstep>
  <scstep>
   <time name="diag">    0.12    0.12</time>
   <time name="diis">    1.47    1.47</time>
   <time name="orth">    0.01    0.01</time>
   <time name="total">    1.81    1.76</time>
   <energy>
    <i name="e_fr_energy">    -70.97635397 </i>
    <i name="e_wo_entrp">    -70.97635397 </i>
    <i name="e_0_energy">    -70.97635397 </i>
   </energy>
  </scstep>
  <scstep>
   <time name="diag">    0.12    0.12</time>
   <time name="diis">    1.47    1.48</time>
   <time name="orth">    0.01    0.01</time>
   <time name="total">    1.81    1.76</time>
   <energy>
    <i name="e_fr_energy">    -70.96836259 </i>
    <i name="e_wo_entrp">    -70.96836259 </i>
    <i name="e_0_energy">    -70.96836259 </i>
   </energy>
  </scstep>
  <scstep>
   <time name="diag">    0.12    0.12</time>
   <time name="diis">    1.50    1.50</time>
   <time name="orth">    0.01    0.01</time>
   <time name="total">    1.84    1.79</time>
   <energy>
    <i name="e_fr_energy">    -70.98744992 </i>
    <i name="e_wo_entrp">    -70.98744992 </i>
    <i name="e_0_energy">    -70.98744992 </i>
   </energy>
  </scstep>
  <scstep>
   <time name="diag">    0.12    0.12</time>
   <time name="diis">    1.48    1.48</time>
   <time name="orth">    0.01    0.01</time>
   <time name="total">    1.82    1.77</time>
   <energy>
    <i name="e_fr_energy">    -70.99272265 </i>
    <i name="e_wo_entrp">    -70.99272265 </i>
    <i name="e_0_energy">    -70.99272265 </i>
   </energy>
  </scstep>
  <scstep>
   <time name="diag">    0.12    0.12</time>
   <time name="diis">    1.48    1.49</time>
   <time name="orth">    0.01    0.01</time>
   <time name="total">    1.82    1.77</time>
   <energy>
    <i name="e_fr_energy">    -70.98889678 </i>
    <i name="e_wo_entrp">    -70.98889678 </i>
    <i name="e_0_energy">    -70.98889678 </i>
   </energy>
  </scstep>
  <scstep>
   <time name="diag">    0.12    0.12</time>
   <time name="diis">    1.49    1.50</time>
   <time name="orth">    0.01    0.01</time>
   <time name="total">    1.83    1.78</time>
   <energy>
    <i name="e_fr_energy">    -70.98950298 </i>
    <i name="e_wo_entrp">    -70.98950298 </i>
    <i name="e_0_energy">    -70.98950298 </i>
   </energy>
  </scstep>
  <scstep>
   <time name="diag">    0.12    0.12</time>
   <time name="diis">    1.57    1.58</time>
   <time name="orth">    0.01    0.01</time>
   <time name="total">    1.92    1.86</time>
   <energy>
    <i name="e_fr_energy">    -70.98927013 </i>
    <i name="e_wo_entrp">    -70.98927013 </i>
    <i name="e_0_energy">    -70.98927013 </i>
   </energy>
  </scstep>
  <scstep>
   <time name="diag">    0.12    0.12</time>
   <time name="diis">    1.50    1.51</time>
   <time name="orth">    0.01    0.01</time>
   <time name="total">    1.84    1.79</time>
   <energy>
    <i name="e_fr_energy">    -70.98922428 </i>
    <i name="e_wo_entrp">    -70.98922428 </i>
    <i name="e_0_energy">    -70.98922428 </i>
   </energy>
  </scstep>
  <scstep>
   <time name="diag">    0.12    0.12</time>
   <time name="diis">    1.61    1.62</time>
   <time name="orth">    0.01    0.01</time>
   <time name="total">    1.95    1.90</time>
   <energy>
    <i name="e_fr_energy">    -70.98922039 </i>
    <i name="e_wo_entrp">    -70.98922039 </i>
    <i name="e_0_energy">    -70.98922039 </i>
   </energy>
  </scstep>
  <scstep>
   <time name="diag">    0.12    0.12</time>
   <time name="diis">    1.49    1.49</time>
   <time name="orth">    0.01    0.01</time>
   <time name="total">    1.83    1.77</time>
   <energy>
    <i name="e_fr_energy">    -70.98921930 </i>
    <i name="e_wo_entrp">    -70.98921930 </i>
    <i name="e_0_energy">    -70.98921930 </i>
   </energy>
  </scstep>
  <scstep>
   <time name="diag">    0.12    0.11</time>
   <time name="diis">    1.48    1.49</time>
   <time name="orth">    0.01    0.01</time>
   <time name="total">    1.82    1.77</time>
   <energy>
    <i name="e_fr_energy">    -70.98921955 </i>
    <i name="e_wo_entrp">    -70.98921955 </i>
    <i name="e_0_energy">    -70.98921955 </i>
   </energy>
  </scstep>
  <scstep>
   <time name="diag">    0.12    0.12</time>
   <time name="diis">    1.58    1.59</time>
   <time name="orth">    0.01    0.01</time>
   <time name="total">    1.92    1.87</time>
   <energy>
    <i name="e_fr_energy">    -70.98921977 </i>
    <i name="e_wo_entrp">    -70.98921977 </i>
    <i name="e_0_energy">    -70.98921977 </i>
   </energy>
  </scstep>
  <scstep>
   <time name="diag">    0.12    0.12</time>
   <time name="diis">    1.49    1.50</time>
   <time name="orth">    0.01    0.01</time>
   <time name="total">    1.84    1.78</time>
   <energy>
    <i name="e_fr_energy">    -70.98921974 </i>
    <i name="e_wo_entrp">    -70.98921974 </i>
    <i name="e_0_energy">    -70.98921974 </i>
   </energy>
  </scstep>
  <scstep>
   <time name="diag">    0.12    0.12</time>
   <time name="diis">    1.50    1.50</time>
   <time name="orth">    0.01    0.01</time>
   <time name="total">    1.84    1.79</time>
   <energy>
    <i name="e_fr_energy">    -70.98921977 </i>
    <i name="e_wo_entrp">    -70.98921977 </i>
    <i name="e_0_energy">    -70.98921977 </i>
   </energy>
  </scstep>
  <scstep>
   <time name="diag">    0.12    0.12</time>
   <time name="diis">    1.02    1.03</time>
   <time name="orth">    0.01    0.01</time>
   <time name="total">    1.37    1.31</time>
   <energy>
    <i name="e_fr_energy">    -70.98921975 </i>
    <i name="e_wo_entrp">    -70.98921975 </i>
    <i name="e_0_energy">    -70.98921975 </i>
   </energy>
  </scstep>
  <scstep>
   <time name="diag">    0.12    0.12</time>
   <time name="diis">    1.00    1.01</time>
   <time name="orth">    0.01    0.01</time>
   <time name="total">    1.16    1.14</time>
   <energy>
    <i name="alphaZ">     71.30271804 </i>
    <i name="ewald">  -1930.19441682 </i>
    <i name="hartreedc">  -1040.55707069 </i>
    <i name="XCdc">    150.68546830 </i>
    <i name="pawpsdc">   8045.46470881 </i>
    <i name="pawaedc">  -8005.84251559 </i>
    <i name="eentropy">     -0.00000000 </i>
    <i name="bandstr">   -265.18548950 </i>
    <i name="atom">   2903.33737771 </i>
    <i name="e_fr_energy">    -70.98921974 </i>
    <i name="e_wo_entrp">    -70.98921974 </i>
    <i name="e_0_energy">    -70.98921974 </i>
   </energy>
  </scstep>
  <structure>
   <crystal>
    <varray name="basis" >
     <v>       4.87342988       0.00000000       0.00000000 </v>
     <v>      -2.43671494       4.22051408       0.00000000 </v>
     <v>       0.00000000       0.00000000       5.37418982 </v>
    </varray>
    <i name="volume">    110.53837516 </i>
    <varray name="rec_basis" >
     <v>       0.20519429       0.11846898      -0.00000000 </v>
     <v>       0.00000000       0.23693796       0.00000000 </v>
     <v>       0.00000000      -0.00000000       0.18607456 </v>
    </varray>
   </crystal>
   <varray name="positions" >
    <v>       0.46471133       0.00005676       0.66674904 </v>
    <v>       0.00002838       0.46469003       0.33329215 </v>
    <v>       0.53529575       0.53532413       0.99995882 </v>
    <v>       0.13566567       0.72386811       0.55421759 </v>
    <v>       0.27594773       0.41140765       0.22077033 </v>
    <v>       0.58868914       0.86466199       0.88757839 </v>
    <v>       0.41121315       0.27590308       0.77917338 </v>
    <v>       0.86448419       0.58839694       0.11239279 </v>
    <v>       0.72393787       0.13563773       0.44586751 </v>
   </varray>
  </structure>
  <varray name="forces" >
   <v>       0.01815737      -0.00144272      -0.00284293 </v>
   <v>      -0.00979041       0.01558378       0.00144883 </v>
   <v>      -0.00827192      -0.01583786       0.00139356 </v>
   <v>      -0.27937772       0.00071010       0.15322404 </v>
   <v>       0.13898868      -0.23637983       0.15461008 </v>
   <v>       0.13447291       0.23653298       0.15231894 </v>
   <v>      -0.27117833       0.00285479      -0.15348312 </v>
   <v>       0.13816600       0.23915401      -0.15180910 </v>
   <v>       0.13883342      -0.24117524      -0.15486030 </v>
  </varray>
  <varray name="stress" >
   <v>      71.96201933       0.01860836      -0.19615838 </v>
   <v>       0.01860823      71.96066750      -0.00156452 </v>
   <v>      -0.19615832      -0.00156447      73.61281723 </v>
  </varray>
  <energy>
   <i name="e_fr_energy">    -70.98921974 </i>
   <i name="e_wo_entrp">    -70.98921974 </i>
   <i name="e_0_energy">    -70.98921974 </i>
  </energy>
  <scstep>
   <time name="total">   22.56    4.47</time>
   <energy>
    <i name="e_fr_energy">   -182.47248355 </i>
    <i name="e_wo_entrp">   -182.47248355 </i>
    <i name="e_0_energy">   -182.47248355 </i>
   </energy>
  </scstep>
  <scstep>
   <time name="total">   21.71    3.92</time>
   <energy>
    <i name="e_fr_energy">   -172.60747107 </i>
    <i name="e_wo_entrp">   -172.60747107 </i>
    <i name="e_0_energy">   -172.60747107 </i>
   </energy>
  </scstep>
  <scstep>
   <time name="total">   21.68    3.94</time>
   <energy>
    <i name="e_fr_energy">   -172.75501117 </i>
    <i name="e_wo_entrp">   -172.75501117 </i>
    <i name="e_0_energy">   -172.75501117 </i>
   </energy>
  </scstep>
  <scstep>
   <time name="total">    1.41    1.41</time>
   <energy>
    <i name="e_fr_energy">   -172.76240401 </i>
    <i name="e_wo_entrp">   -172.76240401 </i>
    <i name="e_0_energy">   -172.76240401 </i>
   </energy>
  </scstep>
  <scstep>
   <time name="total">    1.42    1.43</time>
   <energy>
    <i name="e_fr_energy">   -172.76258548 </i>
    <i name="e_wo_entrp">   -172.76258548 </i>
    <i name="e_0_energy">   -172.76258548 </i>
   </energy>
  </scstep>
  <scstep>
   <time name="total">    1.46    1.46</time>
   <energy>
    <i name="e_fr_energy">   -172.76259942 </i>
    <i name="e_wo_entrp">   -172.76259942 </i>
    <i name="e_0_energy">   -172.76259942 </i>
   </energy>
  </scstep>
  <scstep>
   <time name="total">    1.48    1.49</time>
   <energy>
    <i name="e_fr_energy">   -172.76259746 </i>
    <i name="e_wo_entrp">   -172.76259746 </i>
    <i name="e_0_energy">   -172.76259746 </i>
   </energy>
  </scstep>
  <scstep>
   <time name="total">    1.50    1.50</time>
   <energy>
    <i name="e_fr_energy">   -172.76259378 </i>
    <i name="e_wo_entrp">   -172.76259378 </i>
    <i name="e_0_energy">   -172.76259378 </i>
   </energy>
  </scstep>
  <scstep>
   <time name="total">    1.50    1.51</time>
   <energy>
    <i name="e_fr_energy">   -172.76259234 </i>
    <i name="e_wo_entrp">   -172.76259234 </i>
    <i name="e_0_energy">   -172.76259234 </i>
   </energy>
  </scstep>
  <scstep>
   <time name="total">    1.51    1.51</time>
   <energy>
    <i name="e_fr_energy">   -172.76258966 </i>
    <i name="e_wo_entrp">   -172.76258966 </i>
    <i name="e_0_energy">   -172.76258966 </i>
   </energy>
  </scstep>
  <scstep>
   <time name="total">   22.49    4.45</time>
   <energy>
    <i name="e_fr_energy">   -182.31837425 </i>
    <i name="e_wo_entrp">   -182.31837425 </i>
    <i name="e_0_energy">   -182.31837425 </i>
   </energy>
  </scstep>
  <scstep>
   <time name="total">   22.36    4.02</time>
   <energy>
    <i name="e_fr_energy">   -172.61118999 </i>
    <i name="e_wo_entrp">   -172.61118999 </i>
    <i name="e_0_energy">   -172.61118999 </i>
   </energy>
  </scstep>
  <scstep>
   <time name="total">   22.04    3.99</time>
   <energy>
    <i name="e_fr_energy">   -172.75498469 </i>
    <i name="e_wo_entrp">   -172.75498469 </i>
    <i name="e_0_energy">   -172.75498469 </i>
   </energy>
  </scstep>
  <scstep>
   <time name="total">    1.42    1.42</time>
   <energy>
    <i name="e_fr_energy">   -172.76224905 </i>
    <i name="e_wo_entrp">   -172.76224905 </i>
    <i name="e_0_energy">   -172.76224905 </i>
   </energy>
  </scstep>
  <scstep>
   <time name="total">    1.43    1.43</time>
   <energy>
    <i name="e_fr_energy">   -172.76242775 </i>
    <i name="e_wo_entrp">   -172.76242775 </i>
    <i name="e_0_energy">   -172.76242775 </i>
   </energy>
  </scstep>
  <scstep>
   <time name="total">    1.45    1.45</time>
   <energy>
    <i name="e_fr_energy">   -172.76244267 </i>
    <i name="e_wo_entrp">   -172.76244267 </i>
    <i name="e_0_energy">   -172.76244267 </i>
   </energy>
  </scstep>
  <scstep>
   <time name="total">    1.48    1.49</time>
   <energy>
    <i name="e_fr_energy">   -172.76244623 </i>
    <i name="e_wo_entrp">   -172.76244623 </i>
    <i name="e_0_energy">   -172.76244623 </i>
   </energy>
  </scstep>
  <scstep>
   <time name="total">    1.50    1.51</time>
   <energy>
    <i name="e_fr_energy">   -172.76244708 </i>
    <i name="e_wo_entrp">   -172.76244708 </i>
    <i name="e_0_energy">   -172.76244708 </i>
   </energy>
  </scstep>
  <scstep>
   <time name="total">    1.50    1.50</time>
   <energy>
    <i name="e_fr_energy">   -172.76244754 </i>
    <i name="e_wo_entrp">   -172.76244754 </i>
    <i name="e_0_energy">   -172.76244754 </i>
   </energy>
  </scstep>
  <scstep>
   <time name="total">    1.50    1.51</time>
   <energy>
    <i name="e_fr_energy">   -172.76244783 </i>
    <i name="e_wo_entrp">   -172.76244783 </i>
    <i name="e_0_energy">   -172.76244783 </i>
   </energy>
  </scstep>
  <scstep>
   <time name="total">   22.71    4.51</time>
   <energy>
    <i name="e_fr_energy">   -182.14625278 </i>
    <i name="e_wo_entrp">   -182.14625278 </i>
    <i name="e_0_energy">   -182.14625278 </i>
   </energy>
  </scstep>
  <scstep>
   <time name="total">   23.52    4.18</time>
   <energy>
    <i name="e_fr_energy">   -172.56206683 </i>
    <i name="e_wo_entrp">   -172.56206683 </i>
    <i name="e_0_energy">   -172.56206683 </i>
   </energy>
  </scstep>
  <scstep>
   <time name="total">   22.26    4.03</time>
   <energy>
    <i name="e_fr_energy">   -172.71053918 </i>
    <i name="e_wo_entrp">   -172.71053918 </i>
    <i name="e_0_energy">   -172.71053918 </i>
   </energy>
  </scstep>
  <scstep>
   <time name="total">    1.42    1.43</time>
   <energy>
    <i name="e_fr_energy">   -172.71735867 </i>
    <i name="e_wo_entrp">   -172.71735867 </i>
    <i name="e_0_energy">   -172.71735867 </i>
   </energy>
  </scstep>
  <scstep>
   <time name="total">    1.44    1.44</time>
   <energy>
    <i name="e_fr_energy">   -172.71747631 </i>
    <i name="e_wo_entrp">   -172.71747631 </i>
    <i name="e_0_energy">   -172.71747631 </i>
   </energy>
  </scstep>
  <scstep>
   <time name="total">    1.45    1.46</time>
   <energy>
    <i name="e_fr_energy">   -172.71741577 </i>
    <i name="e_wo_entrp">   -172.71741577 </i>
    <i name="e_0_energy">   -172.71741577 </i>
   </energy>
  </scstep>
  <scstep>
   <time name="total">    1.49    1.49</time>
   <energy>
    <i name="e_fr_energy">   -172.71750976 </i>
    <i name="e_wo_entrp">   -172.71750976 </i>
    <i name="e_0_energy">   -172.71750976 </i>
   </energy>
  </scstep>
  <scstep>
   <time name="total">    1.49    1.49</time>
   <energy>
    <i name="e_fr_energy">   -172.71749489 </i>
    <i name="e_wo_entrp">   -172.71749489 </i>
    <i name="e_0_energy">   -172.71749489 </i>
   </energy>
  </scstep>
  <scstep>
   <time name="total">    1.48    1.48</time>
   <energy>
    <i name="e_fr_energy">   -172.71750764 </i>
    <i name="e_wo_entrp">   -172.71750764 </i>
    <i name="e_0_energy">   -172.71750764 </i>
   </energy>
  </scstep>
  <scstep>
   <time name="total">    1.48    1.48</time>
   <energy>
    <i name="e_fr_energy">   -172.71749884 </i>
    <i name="e_wo_entrp">   -172.71749884 </i>
    <i name="e_0_energy">   -172.71749884 </i>
   </energy>
  </scstep>
  <scstep>
   <time name="total">    2.38    1.83</time>
   <energy>
    <i name="e_fr_energy">     -0.48311426 </i>
    <i name="e_wo_entrp">     -0.48311426 </i>
    <i name="e_0_energy">     -0.48311426 </i>
   </energy>
  </scstep>
  <scstep>
   <time name="total">    2.66    1.87</time>
   <energy>
    <i name="e_fr_energy">     -0.48537223 </i>
    <i name="e_wo_entrp">     -0.48537223 </i>
    <i name="e_0_energy">     -0.48537223 </i>
   </energy>
  </scstep>
  <scstep>
   <time name="total">    2.35    1.84</time>
   <energy>
    <i name="e_fr_energy">     -0.48555926 </i>
    <i name="e_wo_entrp">     -0.48555926 </i>
    <i name="e_0_energy">     -0.48555926 </i>
   </energy>
  </scstep>
  <scstep>
   <time name="total">    2.38    1.85</time>
   <energy>
    <i name="e_fr_energy">     -0.48556782 </i>
    <i name="e_wo_entrp">     -0.48556782 </i>
    <i name="e_0_energy">     -0.48556782 </i>
   </energy>
  </scstep>
  <scstep>
   <time name="total">    2.38    1.85</time>
   <energy>
    <i name="e_fr_energy">     -0.48556812 </i>
    <i name="e_wo_entrp">     -0.48556812 </i>
    <i name="e_0_energy">     -0.48556812 </i>
   </energy>
  </scstep>
  <scstep>
   <time name="total">    2.34    1.79</time>
   <energy>
    <i name="e_fr_energy">     -0.48556815 </i>
    <i name="e_wo_entrp">     -0.48556815 </i>
    <i name="e_0_energy">     -0.48556815 </i>
   </energy>
  </scstep>
  <scstep>
   <time name="total">    2.33    1.74</time>
   <energy>
    <i name="e_fr_energy">     -0.48556815 </i>
    <i name="e_wo_entrp">     -0.48556815 </i>
    <i name="e_0_energy">     -0.48556815 </i>
   </energy>
  </scstep>
  <scstep>
   <time name="total">    2.27    1.72</time>
   <energy>
    <i name="e_fr_energy">     -0.48556815 </i>
    <i name="e_wo_entrp">     -0.48556815 </i>
    <i name="e_0_energy">     -0.48556815 </i>
   </energy>
  </scstep>
  <scstep>
   <time name="total">    2.26    1.71</time>
   <energy>
    <i name="e_fr_energy">     -0.48556815 </i>
    <i name="e_wo_entrp">     -0.48556815 </i>
    <i name="e_0_energy">     -0.48556815 </i>
   </energy>
  </scstep>
  <scstep>
   <time name="total">    2.38    1.84</time>
   <energy>
    <i name="e_fr_energy">     -0.48315564 </i>
    <i name="e_wo_entrp">     -0.48315564 </i>
    <i name="e_0_energy">     -0.48315564 </i>
   </energy>
  </scstep>
  <scstep>
   <time name="total">    2.39    1.84</time>
   <energy>
    <i name="e_fr_energy">     -0.48537044 </i>
    <i name="e_wo_entrp">     -0.48537044 </i>
    <i name="e_0_energy">     -0.48537044 </i>
   </energy>
  </scstep>
  <scstep>
   <time name="total">    2.41    1.86</time>
   <energy>
    <i name="e_fr_energy">     -0.48555933 </i>
    <i name="e_wo_entrp">     -0.48555933 </i>
    <i name="e_0_energy">     -0.48555933 </i>
   </energy>
  </scstep>
  <scstep>
   <time name="total">    2.42    1.87</time>
   <energy>
    <i name="e_fr_energy">     -0.48556802 </i>
    <i name="e_wo_entrp">     -0.48556802 </i>
    <i name="e_0_energy">     -0.48556802 </i>
   </energy>
  </scstep>
  <scstep>
   <time name="total">    2.42    1.88</time>
   <energy>
    <i name="e_fr_energy">     -0.48556833 </i>
    <i name="e_wo_entrp">     -0.48556833 </i>
    <i name="e_0_energy">     -0.48556833 </i>
   </energy>
  </scstep>
  <scstep>
   <time name="total">    2.35    1.80</time>
   <energy>
    <i name="e_fr_energy">     -0.48556835 </i>
    <i name="e_wo_entrp">     -0.48556835 </i>
    <i name="e_0_energy">     -0.48556835 </i>
   </energy>
  </scstep>
  <scstep>
   <time name="total">    2.24    1.72</time>
   <energy>
    <i name="e_fr_energy">     -0.48556835 </i>
    <i name="e_wo_entrp">     -0.48556835 </i>
    <i name="e_0_energy">     -0.48556835 </i>
   </energy>
  </scstep>
  <scstep>
   <time name="total">    2.25    1.71</time>
   <energy>
    <i name="e_fr_energy">     -0.48556835 </i>
    <i name="e_wo_entrp">     -0.48556835 </i>
    <i name="e_0_energy">     -0.48556835 </i>
   </energy>
  </scstep>
  <scstep>
   <time name="total">    2.27    1.72</time>
   <energy>
    <i name="e_fr_energy">     -0.48556835 </i>
    <i name="e_wo_entrp">     -0.48556835 </i>
    <i name="e_0_energy">     -0.48556835 </i>
   </energy>
  </scstep>
  <scstep>
   <time name="total">    2.38    1.84</time>
   <energy>
    <i name="e_fr_energy">     -0.48761205 </i>
    <i name="e_wo_entrp">     -0.48761205 </i>
    <i name="e_0_energy">     -0.48761205 </i>
   </energy>
  </scstep>
  <scstep>
   <time name="total">    2.36    1.82</time>
   <energy>
    <i name="e_fr_energy">     -0.48965568 </i>
    <i name="e_wo_entrp">     -0.48965568 </i>
    <i name="e_0_energy">     -0.48965568 </i>
   </energy>
  </scstep>
  <scstep>
   <time name="total">    2.37    1.83</time>
   <energy>
    <i name="e_fr_energy">     -0.48984660 </i>
    <i name="e_wo_entrp">     -0.48984660 </i>
    <i name="e_0_energy">     -0.48984660 </i>
   </energy>
  </scstep>
  <scstep>
   <time name="total">    2.40    1.85</time>
   <energy>
    <i name="e_fr_energy">     -0.48985552 </i>
    <i name="e_wo_entrp">     -0.48985552 </i>
    <i name="e_0_energy">     -0.48985552 </i>
   </energy>
  </scstep>
  <scstep>
   <time name="total">    2.38    1.86</time>
   <energy>
    <i name="e_fr_energy">     -0.48985583 </i>
    <i name="e_wo_entrp">     -0.48985583 </i>
    <i name="e_0_energy">     -0.48985583 </i>
   </energy>
  </scstep>
  <scstep>
   <time name="total">    2.37    1.81</time>
   <energy>
    <i name="e_fr_energy">     -0.48985585 </i>
    <i name="e_wo_entrp">     -0.48985585 </i>
    <i name="e_0_energy">     -0.48985585 </i>
   </energy>
  </scstep>
  <scstep>
   <time name="total">    2.27    1.74</time>
   <energy>
    <i name="e_fr_energy">     -0.48985585 </i>
    <i name="e_wo_entrp">     -0.48985585 </i>
    <i name="e_0_energy">     -0.48985585 </i>
   </energy>
  </scstep>
  <scstep>
   <time name="total">    2.34    1.73</time>
   <energy>
    <i name="e_fr_energy">     -0.48985585 </i>
    <i name="e_wo_entrp">     -0.48985585 </i>
    <i name="e_0_energy">     -0.48985585 </i>
   </energy>
  </scstep>
  <scstep>
   <time name="total">    2.25    1.71</time>
   <energy>
    <i name="e_fr_energy">     -0.48985585 </i>
    <i name="e_wo_entrp">     -0.48985585 </i>
    <i name="e_0_energy">     -0.48985585 </i>
   </energy>
  </scstep>
  <scstep>
   <time name="total">    2.27    1.72</time>
   <energy>
    <i name="e_fr_energy">     -0.48985585 </i>
    <i name="e_wo_entrp">     -0.48985585 </i>
    <i name="e_0_energy">     -0.48985585 </i>
   </energy>
  </scstep>
  <varray name="dielectric_ipa" >
   <v>       2.58976312       0.00005401       0.00015607 </v>
   <v>       0.00005723       2.58975956      -0.00000182 </v>
   <v>       0.00015519      -0.00000384       2.60380386 </v>
  </varray>
  <kpoints>
   <generation param="Gamma">
    <v type="int" name="divisions">       4        4        4 </v>
    <v name="usershift">      0.00000000       0.00000000       0.00000000 </v>
    <v name="genvec1">      0.25000000       0.00000000       0.00000000 </v>
    <v name="genvec2">      0.00000000       0.25000000       0.00000000 </v>
    <v name="genvec3">      0.00000000       0.00000000       0.25000000 </v>
    <v name="shift">      0.00000000       0.00000000       0.00000000 </v>
   </generation>
   <varray name="kpointlist" >
    <v>       0.00000000       0.00000000       0.00000000 </v>
    <v>       0.25000000       0.00000000       0.00000000 </v>
    <v>       0.00000000       0.25000000       0.00000000 </v>
    <v>      -0.25000000       0.25000000       0.00000000 </v>
    <v>       0.50000000       0.00000000       0.00000000 </v>
    <v>       0.00000000       0.50000000       0.00000000 </v>
    <v>       0.50000000       0.50000000       0.00000000 </v>
    <v>       0.25000000       0.25000000       0.00000000 </v>
    <v>      -0.25000000       0.50000000       0.00000000 </v>
    <v>       0.50000000       0.25000000       0.00000000 </v>
    <v>       0.00000000       0.00000000       0.25000000 </v>
    <v>       0.25000000       0.00000000       0.25000000 </v>
    <v>       0.00000000       0.25000000       0.25000000 </v>
    <v>      -0.25000000       0.25000000       0.25000000 </v>
    <v>      -0.25000000       0.00000000       0.25000000 </v>
    <v>       0.00000000      -0.25000000       0.25000000 </v>
    <v>       0.25000000      -0.25000000       0.25000000 </v>
    <v>       0.50000000       0.00000000       0.25000000 </v>
    <v>       0.00000000       0.50000000       0.25000000 </v>
    <v>       0.50000000       0.50000000       0.25000000 </v>
    <v>       0.25000000       0.25000000       0.25000000 </v>
    <v>      -0.25000000       0.50000000       0.25000000 </v>
    <v>       0.50000000       0.25000000       0.25000000 </v>
    <v>      -0.25000000      -0.25000000       0.25000000 </v>
    <v>       0.25000000       0.50000000       0.25000000 </v>
    <v>       0.50000000      -0.25000000       0.25000000 </v>
    <v>       0.00000000       0.00000000       0.50000000 </v>
    <v>       0.25000000       0.00000000       0.50000000 </v>
    <v>       0.00000000       0.25000000       0.50000000 </v>
    <v>      -0.25000000       0.25000000       0.50000000 </v>
    <v>       0.50000000       0.00000000       0.50000000 </v>
    <v>       0.00000000       0.50000000       0.50000000 </v>
    <v>       0.50000000       0.50000000       0.50000000 </v>
    <v>       0.25000000       0.25000000       0.50000000 </v>
    <v>      -0.25000000       0.50000000       0.50000000 </v>
    <v>       0.50000000       0.25000000       0.50000000 </v>
   </varray>
   <varray name="weights" >
    <v>       0.01562500 </v>
    <v>       0.03125000 </v>
    <v>       0.03125000 </v>
    <v>       0.03125000 </v>
    <v>       0.01562500 </v>
    <v>       0.01562500 </v>
    <v>       0.01562500 </v>
    <v>       0.03125000 </v>
    <v>       0.03125000 </v>
    <v>       0.03125000 </v>
    <v>       0.03125000 </v>
    <v>       0.03125000 </v>
    <v>       0.03125000 </v>
    <v>       0.03125000 </v>
    <v>       0.03125000 </v>
    <v>       0.03125000 </v>
    <v>       0.03125000 </v>
    <v>       0.03125000 </v>
    <v>       0.03125000 </v>
    <v>       0.03125000 </v>
    <v>       0.03125000 </v>
    <v>       0.03125000 </v>
    <v>       0.03125000 </v>
    <v>       0.03125000 </v>
    <v>       0.03125000 </v>
    <v>       0.03125000 </v>
    <v>       0.01562500 </v>
    <v>       0.03125000 </v>
    <v>       0.03125000 </v>
    <v>       0.03125000 </v>
    <v>       0.01562500 </v>
    <v>       0.01562500 </v>
    <v>       0.01562500 </v>
    <v>       0.03125000 </v>
    <v>       0.03125000 </v>
    <v>       0.03125000 </v>
   </varray>
  </kpoints>
  <scstep>
   <time name="total">    2.43    1.87</time>
   <energy>
    <i name="e_fr_energy">     -0.48311426 </i>
    <i name="e_wo_entrp">     -0.48311426 </i>
    <i name="e_0_energy">     -0.48311426 </i>
   </energy>
  </scstep>
  <scstep>
   <time name="total">    2.52    1.94</time>
   <energy>
    <i name="e_fr_energy">     -0.48537223 </i>
    <i name="e_wo_entrp">     -0.48537223 </i>
    <i name="e_0_energy">     -0.48537223 </i>
   </energy>
  </scstep>
  <scstep>
   <time name="total">    2.53    1.95</time>
   <energy>
    <i name="e_fr_energy">     -0.46519530 </i>
    <i name="e_wo_entrp">     -0.46519530 </i>
    <i name="e_0_energy">     -0.46519530 </i>
   </energy>
  </scstep>
  <scstep>
   <time name="total">    2.48    1.93</time>
   <energy>
    <i name="e_fr_energy">     -0.47601668 </i>
    <i name="e_wo_entrp">     -0.47601668 </i>
    <i name="e_0_energy">     -0.47601668 </i>
   </energy>
  </scstep>
  <scstep>
   <time name="total">    2.51    1.93</time>
   <energy>
    <i name="e_fr_energy">     -0.49377131 </i>
    <i name="e_wo_entrp">     -0.49377131 </i>
    <i name="e_0_energy">     -0.49377131 </i>
   </energy>
  </scstep>
  <scstep>
   <time name="total">    2.47    1.90</time>
   <energy>
    <i name="e_fr_energy">     -0.49670184 </i>
    <i name="e_wo_entrp">     -0.49670184 </i>
    <i name="e_0_energy">     -0.49670184 </i>
   </energy>
  </scstep>
  <scstep>
   <time name="total">    2.50    1.93</time>
   <energy>
    <i name="e_fr_energy">     -0.49693851 </i>
    <i name="e_wo_entrp">     -0.49693851 </i>
    <i name="e_0_energy">     -0.49693851 </i>
   </energy>
  </scstep>
  <scstep>
   <time name="total">    2.49    1.93</time>
   <energy>
    <i name="e_fr_energy">     -0.49717209 </i>
    <i name="e_wo_entrp">     -0.49717209 </i>
    <i name="e_0_energy">     -0.49717209 </i>
   </energy>
  </scstep>
  <scstep>
   <time name="total">    2.49    1.93</time>
   <energy>
    <i name="e_fr_energy">     -0.49723502 </i>
    <i name="e_wo_entrp">     -0.49723502 </i>
    <i name="e_0_energy">     -0.49723502 </i>
   </energy>
  </scstep>
  <scstep>
   <time name="total">    2.53    1.96</time>
   <energy>
    <i name="e_fr_energy">     -0.49723051 </i>
    <i name="e_wo_entrp">     -0.49723051 </i>
    <i name="e_0_energy">     -0.49723051 </i>
   </energy>
  </scstep>
  <scstep>
   <time name="total">    2.56    1.99</time>
   <energy>
    <i name="e_fr_energy">     -0.49723162 </i>
    <i name="e_wo_entrp">     -0.49723162 </i>
    <i name="e_0_energy">     -0.49723162 </i>
   </energy>
  </scstep>
  <scstep>
   <time name="total">    2.50    1.93</time>
   <energy>
    <i name="e_fr_energy">     -0.49723147 </i>
    <i name="e_wo_entrp">     -0.49723147 </i>
    <i name="e_0_energy">     -0.49723147 </i>
   </energy>
  </scstep>
  <scstep>
   <time name="total">    2.49    1.93</time>
   <energy>
    <i name="e_fr_energy">     -0.49723139 </i>
    <i name="e_wo_entrp">     -0.49723139 </i>
    <i name="e_0_energy">     -0.49723139 </i>
   </energy>
  </scstep>
  <scstep>
   <time name="total">    2.53    1.98</time>
   <energy>
    <i name="e_fr_energy">     -0.49723135 </i>
    <i name="e_wo_entrp">     -0.49723135 </i>
    <i name="e_0_energy">     -0.49723135 </i>
   </energy>
  </scstep>
  <kpoints>
   <generation param="Gamma">
    <v type="int" name="divisions">       4        4        4 </v>
    <v name="usershift">      0.00000000       0.00000000       0.00000000 </v>
    <v name="genvec1">      0.25000000       0.00000000       0.00000000 </v>
    <v name="genvec2">      0.00000000       0.25000000       0.00000000 </v>
    <v name="genvec3">      0.00000000       0.00000000       0.25000000 </v>
    <v name="shift">      0.00000000       0.00000000       0.00000000 </v>
   </generation>
   <varray name="kpointlist" >
    <v>       0.00000000       0.00000000       0.00000000 </v>
    <v>       0.25000000       0.00000000       0.00000000 </v>
    <v>       0.00000000       0.25000000       0.00000000 </v>
    <v>      -0.25000000       0.25000000       0.00000000 </v>
    <v>       0.50000000       0.00000000       0.00000000 </v>
    <v>       0.00000000       0.50000000       0.00000000 </v>
    <v>       0.50000000       0.50000000       0.00000000 </v>
    <v>       0.25000000       0.25000000       0.00000000 </v>
    <v>      -0.25000000       0.50000000       0.00000000 </v>
    <v>       0.50000000       0.25000000       0.00000000 </v>
    <v>       0.00000000       0.00000000       0.25000000 </v>
    <v>       0.25000000       0.00000000       0.25000000 </v>
    <v>       0.00000000       0.25000000       0.25000000 </v>
    <v>      -0.25000000       0.25000000       0.25000000 </v>
    <v>      -0.25000000       0.00000000       0.25000000 </v>
    <v>       0.00000000      -0.25000000       0.25000000 </v>
    <v>       0.25000000      -0.25000000       0.25000000 </v>
    <v>       0.50000000       0.00000000       0.25000000 </v>
    <v>       0.00000000       0.50000000       0.25000000 </v>
    <v>       0.50000000       0.50000000       0.25000000 </v>
    <v>       0.25000000       0.25000000       0.25000000 </v>
    <v>      -0.25000000       0.50000000       0.25000000 </v>
    <v>       0.50000000       0.25000000       0.25000000 </v>
    <v>      -0.25000000      -0.25000000       0.25000000 </v>
    <v>       0.25000000       0.50000000       0.25000000 </v>
    <v>       0.50000000      -0.25000000       0.25000000 </v>
    <v>       0.00000000       0.00000000       0.50000000 </v>
    <v>       0.25000000       0.00000000       0.50000000 </v>
    <v>       0.00000000       0.25000000       0.50000000 </v>
    <v>      -0.25000000       0.25000000       0.50000000 </v>
    <v>       0.50000000       0.00000000       0.50000000 </v>
    <v>       0.00000000       0.50000000       0.50000000 </v>
    <v>       0.50000000       0.50000000       0.50000000 </v>
    <v>       0.25000000       0.25000000       0.50000000 </v>
    <v>      -0.25000000       0.50000000       0.50000000 </v>
    <v>       0.50000000       0.25000000       0.50000000 </v>
   </varray>
   <varray name="weights" >
    <v>       0.01562500 </v>
    <v>       0.03125000 </v>
    <v>       0.03125000 </v>
    <v>       0.03125000 </v>
    <v>       0.01562500 </v>
    <v>       0.01562500 </v>
    <v>       0.01562500 </v>
    <v>       0.03125000 </v>
    <v>       0.03125000 </v>
    <v>       0.03125000 </v>
    <v>       0.03125000 </v>
    <v>       0.03125000 </v>
    <v>       0.03125000 </v>
    <v>       0.03125000 </v>
    <v>       0.03125000 </v>
    <v>       0.03125000 </v>
    <v>       0.03125000 </v>
    <v>       0.03125000 </v>
    <v>       0.03125000 </v>
    <v>       0.03125000 </v>
    <v>       0.03125000 </v>
    <v>       0.03125000 </v>
    <v>       0.03125000 </v>
    <v>       0.03125000 </v>
    <v>       0.03125000 </v>
    <v>       0.03125000 </v>
    <v>       0.01562500 </v>
    <v>       0.03125000 </v>
    <v>       0.03125000 </v>
    <v>       0.03125000 </v>
    <v>       0.01562500 </v>
    <v>       0.01562500 </v>
    <v>       0.01562500 </v>
    <v>       0.03125000 </v>
    <v>       0.03125000 </v>
    <v>       0.03125000 </v>
   </varray>
  </kpoints>
  <scstep>
   <time name="total">    2.41    1.85</time>
   <energy>
    <i name="e_fr_energy">     -0.48315564 </i>
    <i name="e_wo_entrp">     -0.48315564 </i>
    <i name="e_0_energy">     -0.48315564 </i>
   </energy>
  </scstep>
  <scstep>
   <time name="total">    2.47    1.91</time>
   <energy>
    <i name="e_fr_energy">     -0.48537044 </i>
    <i name="e_wo_entrp">     -0.48537044 </i>
    <i name="e_0_energy">     -0.48537044 </i>
   </energy>
  </scstep>
  <scstep>
   <time name="total">    2.48    1.91</time>
   <energy>
    <i name="e_fr_energy">     -0.46518797 </i>
    <i name="e_wo_entrp">     -0.46518797 </i>
    <i name="e_0_energy">     -0.46518797 </i>
   </energy>
  </scstep>
  <scstep>
   <time name="total">    2.49    1.92</time>
   <energy>
    <i name="e_fr_energy">     -0.47602128 </i>
    <i name="e_wo_entrp">     -0.47602128 </i>
    <i name="e_0_energy">     -0.47602128 </i>
   </energy>
  </scstep>
  <scstep>
   <time name="total">    2.43    1.89</time>
   <energy>
    <i name="e_fr_energy">     -0.49375252 </i>
    <i name="e_wo_entrp">     -0.49375252 </i>
    <i name="e_0_energy">     -0.49375252 </i>
   </energy>
  </scstep>
  <scstep>
   <time name="total">    2.44    1.88</time>
   <energy>
    <i name="e_fr_energy">     -0.49667073 </i>
    <i name="e_wo_entrp">     -0.49667073 </i>
    <i name="e_0_energy">     -0.49667073 </i>
   </energy>
  </scstep>
  <scstep>
   <time name="total">    2.50    1.93</time>
   <energy>
    <i name="e_fr_energy">     -0.49691445 </i>
    <i name="e_wo_entrp">     -0.49691445 </i>
    <i name="e_0_energy">     -0.49691445 </i>
   </energy>
  </scstep>
  <scstep>
   <time name="total">    2.48    1.93</time>
   <energy>
    <i name="e_fr_energy">     -0.49714534 </i>
    <i name="e_wo_entrp">     -0.49714534 </i>
    <i name="e_0_energy">     -0.49714534 </i>
   </energy>
  </scstep>
  <scstep>
   <time name="total">    2.46    1.92</time>
   <energy>
    <i name="e_fr_energy">     -0.49721046 </i>
    <i name="e_wo_entrp">     -0.49721046 </i>
    <i name="e_0_energy">     -0.49721046 </i>
   </energy>
  </scstep>
  <scstep>
   <time name="total">    2.53    1.96</time>
   <energy>
    <i name="e_fr_energy">     -0.49720561 </i>
    <i name="e_wo_entrp">     -0.49720561 </i>
    <i name="e_0_energy">     -0.49720561 </i>
   </energy>
  </scstep>
  <scstep>
   <time name="total">    2.55    1.97</time>
   <energy>
    <i name="e_fr_energy">     -0.49720662 </i>
    <i name="e_wo_entrp">     -0.49720662 </i>
    <i name="e_0_energy">     -0.49720662 </i>
   </energy>
  </scstep>
  <scstep>
   <time name="total">    2.47    1.90</time>
   <energy>
    <i name="e_fr_energy">     -0.49720648 </i>
    <i name="e_wo_entrp">     -0.49720648 </i>
    <i name="e_0_energy">     -0.49720648 </i>
   </energy>
  </scstep>
  <scstep>
   <time name="total">    2.52    1.94</time>
   <energy>
    <i name="e_fr_energy">     -0.49720667 </i>
    <i name="e_wo_entrp">     -0.49720667 </i>
    <i name="e_0_energy">     -0.49720667 </i>
   </energy>
  </scstep>
  <scstep>
   <time name="total">    2.58    1.99</time>
   <energy>
    <i name="e_fr_energy">     -0.49720652 </i>
    <i name="e_wo_entrp">     -0.49720652 </i>
    <i name="e_0_energy">     -0.49720652 </i>
   </energy>
  </scstep>
  <kpoints>
   <generation param="Gamma">
    <v type="int" name="divisions">       4        4        4 </v>
    <v name="usershift">      0.00000000       0.00000000       0.00000000 </v>
    <v name="genvec1">      0.25000000       0.00000000       0.00000000 </v>
    <v name="genvec2">      0.00000000       0.25000000       0.00000000 </v>
    <v name="genvec3">      0.00000000       0.00000000       0.25000000 </v>
    <v name="shift">      0.00000000       0.00000000       0.00000000 </v>
   </generation>
   <varray name="kpointlist" >
    <v>       0.00000000       0.00000000       0.00000000 </v>
    <v>       0.25000000       0.00000000       0.00000000 </v>
    <v>       0.00000000       0.25000000       0.00000000 </v>
    <v>      -0.25000000       0.25000000       0.00000000 </v>
    <v>       0.50000000       0.00000000       0.00000000 </v>
    <v>       0.00000000       0.50000000       0.00000000 </v>
    <v>       0.50000000       0.50000000       0.00000000 </v>
    <v>       0.25000000       0.25000000       0.00000000 </v>
    <v>      -0.25000000       0.50000000       0.00000000 </v>
    <v>       0.50000000       0.25000000       0.00000000 </v>
    <v>       0.00000000       0.00000000       0.25000000 </v>
    <v>       0.25000000       0.00000000       0.25000000 </v>
    <v>       0.00000000       0.25000000       0.25000000 </v>
    <v>      -0.25000000       0.25000000       0.25000000 </v>
    <v>      -0.25000000       0.00000000       0.25000000 </v>
    <v>       0.00000000      -0.25000000       0.25000000 </v>
    <v>       0.25000000      -0.25000000       0.25000000 </v>
    <v>       0.50000000       0.00000000       0.25000000 </v>
    <v>       0.00000000       0.50000000       0.25000000 </v>
    <v>       0.50000000       0.50000000       0.25000000 </v>
    <v>       0.25000000       0.25000000       0.25000000 </v>
    <v>      -0.25000000       0.50000000       0.25000000 </v>
    <v>       0.50000000       0.25000000       0.25000000 </v>
    <v>      -0.25000000      -0.25000000       0.25000000 </v>
    <v>       0.25000000       0.50000000       0.25000000 </v>
    <v>       0.50000000      -0.25000000       0.25000000 </v>
    <v>       0.00000000       0.00000000       0.50000000 </v>
    <v>       0.25000000       0.00000000       0.50000000 </v>
    <v>       0.00000000       0.25000000       0.50000000 </v>
    <v>      -0.25000000       0.25000000       0.50000000 </v>
    <v>       0.50000000       0.00000000       0.50000000 </v>
    <v>       0.00000000       0.50000000       0.50000000 </v>
    <v>       0.50000000       0.50000000       0.50000000 </v>
    <v>       0.25000000       0.25000000       0.50000000 </v>
    <v>      -0.25000000       0.50000000       0.50000000 </v>
    <v>       0.50000000       0.25000000       0.50000000 </v>
   </varray>
   <varray name="weights" >
    <v>       0.01562500 </v>
    <v>       0.03125000 </v>
    <v>       0.03125000 </v>
    <v>       0.03125000 </v>
    <v>       0.01562500 </v>
    <v>       0.01562500 </v>
    <v>       0.01562500 </v>
    <v>       0.03125000 </v>
    <v>       0.03125000 </v>
    <v>       0.03125000 </v>
    <v>       0.03125000 </v>
    <v>       0.03125000 </v>
    <v>       0.03125000 </v>
    <v>       0.03125000 </v>
    <v>       0.03125000 </v>
    <v>       0.03125000 </v>
    <v>       0.03125000 </v>
    <v>       0.03125000 </v>
    <v>       0.03125000 </v>
    <v>       0.03125000 </v>
    <v>       0.03125000 </v>
    <v>       0.03125000 </v>
    <v>       0.03125000 </v>
    <v>       0.03125000 </v>
    <v>       0.03125000 </v>
    <v>       0.03125000 </v>
    <v>       0.01562500 </v>
    <v>       0.03125000 </v>
    <v>       0.03125000 </v>
    <v>       0.03125000 </v>
    <v>       0.01562500 </v>
    <v>       0.01562500 </v>
    <v>       0.01562500 </v>
    <v>       0.03125000 </v>
    <v>       0.03125000 </v>
    <v>       0.03125000 </v>
   </varray>
  </kpoints>
  <scstep>
   <time name="total">    2.42    1.86</time>
   <energy>
    <i name="e_fr_energy">     -0.48761205 </i>
    <i name="e_wo_entrp">     -0.48761205 </i>
    <i name="e_0_energy">     -0.48761205 </i>
   </energy>
  </scstep>
  <scstep>
   <time name="total">    2.50    1.92</time>
   <energy>
    <i name="e_fr_energy">     -0.48965568 </i>
    <i name="e_wo_entrp">     -0.48965568 </i>
    <i name="e_0_energy">     -0.48965568 </i>
   </energy>
  </scstep>
  <scstep>
   <time name="total">    2.47    1.90</time>
   <energy>
    <i name="e_fr_energy">     -0.47547949 </i>
    <i name="e_wo_entrp">     -0.47547949 </i>
    <i name="e_0_energy">     -0.47547949 </i>
   </energy>
  </scstep>
  <scstep>
   <time name="total">    2.51    1.93</time>
   <energy>
    <i name="e_fr_energy">     -0.48771823 </i>
    <i name="e_wo_entrp">     -0.48771823 </i>
    <i name="e_0_energy">     -0.48771823 </i>
   </energy>
  </scstep>
  <scstep>
   <time name="total">    2.51    1.93</time>
   <energy>
    <i name="e_fr_energy">     -0.50391631 </i>
    <i name="e_wo_entrp">     -0.50391631 </i>
    <i name="e_0_energy">     -0.50391631 </i>
   </energy>
  </scstep>
  <scstep>
   <time name="total">    2.45    1.88</time>
   <energy>
    <i name="e_fr_energy">     -0.50677286 </i>
    <i name="e_wo_entrp">     -0.50677286 </i>
    <i name="e_0_energy">     -0.50677286 </i>
   </energy>
  </scstep>
  <scstep>
   <time name="total">    2.52    1.94</time>
   <energy>
    <i name="e_fr_energy">     -0.50696906 </i>
    <i name="e_wo_entrp">     -0.50696906 </i>
    <i name="e_0_energy">     -0.50696906 </i>
   </energy>
  </scstep>
  <scstep>
   <time name="total">    2.47    1.91</time>
   <energy>
    <i name="e_fr_energy">     -0.50722212 </i>
    <i name="e_wo_entrp">     -0.50722212 </i>
    <i name="e_0_energy">     -0.50722212 </i>
   </energy>
  </scstep>
  <scstep>
   <time name="total">    2.68    1.95</time>
   <energy>
    <i name="e_fr_energy">     -0.50725245 </i>
    <i name="e_wo_entrp">     -0.50725245 </i>
    <i name="e_0_energy">     -0.50725245 </i>
   </energy>
  </scstep>
  <scstep>
   <time name="total">    2.48    1.94</time>
   <energy>
    <i name="e_fr_energy">     -0.50725085 </i>
    <i name="e_wo_entrp">     -0.50725085 </i>
    <i name="e_0_energy">     -0.50725085 </i>
   </energy>
  </scstep>
  <scstep>
   <time name="total">    2.54    1.98</time>
   <energy>
    <i name="e_fr_energy">     -0.50724860 </i>
    <i name="e_wo_entrp">     -0.50724860 </i>
    <i name="e_0_energy">     -0.50724860 </i>
   </energy>
  </scstep>
  <scstep>
   <time name="total">    2.53    1.90</time>
   <energy>
    <i name="e_fr_energy">     -0.50724913 </i>
    <i name="e_wo_entrp">     -0.50724913 </i>
    <i name="e_0_energy">     -0.50724913 </i>
   </energy>
  </scstep>
  <scstep>
   <time name="total">    2.51    1.94</time>
   <energy>
    <i name="e_fr_energy">     -0.50724909 </i>
    <i name="e_wo_entrp">     -0.50724909 </i>
    <i name="e_0_energy">     -0.50724909 </i>
   </energy>
  </scstep>
  <scstep>
   <time name="total">    2.49    1.91</time>
   <energy>
    <i name="e_fr_energy">     -0.50724915 </i>
    <i name="e_wo_entrp">     -0.50724915 </i>
    <i name="e_0_energy">     -0.50724915 </i>
   </energy>
  </scstep>
  <kpoints>
   <generation param="Gamma">
    <v type="int" name="divisions">       4        4        4 </v>
    <v name="usershift">      0.00000000       0.00000000       0.00000000 </v>
    <v name="genvec1">      0.25000000       0.00000000       0.00000000 </v>
    <v name="genvec2">      0.00000000       0.25000000       0.00000000 </v>
    <v name="genvec3">      0.00000000       0.00000000       0.25000000 </v>
    <v name="shift">      0.00000000       0.00000000       0.00000000 </v>
   </generation>
   <varray name="kpointlist" >
    <v>       0.00000000       0.00000000       0.00000000 </v>
    <v>       0.25000000       0.00000000       0.00000000 </v>
    <v>       0.00000000       0.25000000       0.00000000 </v>
    <v>      -0.25000000       0.25000000       0.00000000 </v>
    <v>       0.50000000       0.00000000       0.00000000 </v>
    <v>       0.00000000       0.50000000       0.00000000 </v>
    <v>       0.50000000       0.50000000       0.00000000 </v>
    <v>       0.25000000       0.25000000       0.00000000 </v>
    <v>      -0.25000000       0.50000000       0.00000000 </v>
    <v>       0.50000000       0.25000000       0.00000000 </v>
    <v>       0.00000000       0.00000000       0.25000000 </v>
    <v>       0.25000000       0.00000000       0.25000000 </v>
    <v>       0.00000000       0.25000000       0.25000000 </v>
    <v>      -0.25000000       0.25000000       0.25000000 </v>
    <v>      -0.25000000       0.00000000       0.25000000 </v>
    <v>       0.00000000      -0.25000000       0.25000000 </v>
    <v>       0.25000000      -0.25000000       0.25000000 </v>
    <v>       0.50000000       0.00000000       0.25000000 </v>
    <v>       0.00000000       0.50000000       0.25000000 </v>
    <v>       0.50000000       0.50000000       0.25000000 </v>
    <v>       0.25000000       0.25000000       0.25000000 </v>
    <v>      -0.25000000       0.50000000       0.25000000 </v>
    <v>       0.50000000       0.25000000       0.25000000 </v>
    <v>      -0.25000000      -0.25000000       0.25000000 </v>
    <v>       0.25000000       0.50000000       0.25000000 </v>
    <v>       0.50000000      -0.25000000       0.25000000 </v>
    <v>       0.00000000       0.00000000       0.50000000 </v>
    <v>       0.25000000       0.00000000       0.50000000 </v>
    <v>       0.00000000       0.25000000       0.50000000 </v>
    <v>      -0.25000000       0.25000000       0.50000000 </v>
    <v>       0.50000000       0.00000000       0.50000000 </v>
    <v>       0.00000000       0.50000000       0.50000000 </v>
    <v>       0.50000000       0.50000000       0.50000000 </v>
    <v>       0.25000000       0.25000000       0.50000000 </v>
    <v>      -0.25000000       0.50000000       0.50000000 </v>
    <v>       0.50000000       0.25000000       0.50000000 </v>
   </varray>
   <varray name="weights" >
    <v>       0.01562500 </v>
    <v>       0.03125000 </v>
    <v>       0.03125000 </v>
    <v>       0.03125000 </v>
    <v>       0.01562500 </v>
    <v>       0.01562500 </v>
    <v>       0.01562500 </v>
    <v>       0.03125000 </v>
    <v>       0.03125000 </v>
    <v>       0.03125000 </v>
    <v>       0.03125000 </v>
    <v>       0.03125000 </v>
    <v>       0.03125000 </v>
    <v>       0.03125000 </v>
    <v>       0.03125000 </v>
    <v>       0.03125000 </v>
    <v>       0.03125000 </v>
    <v>       0.03125000 </v>
    <v>       0.03125000 </v>
    <v>       0.03125000 </v>
    <v>       0.03125000 </v>
    <v>       0.03125000 </v>
    <v>       0.03125000 </v>
    <v>       0.03125000 </v>
    <v>       0.03125000 </v>
    <v>       0.03125000 </v>
    <v>       0.01562500 </v>
    <v>       0.03125000 </v>
    <v>       0.03125000 </v>
    <v>       0.03125000 </v>
    <v>       0.01562500 </v>
    <v>       0.01562500 </v>
    <v>       0.01562500 </v>
    <v>       0.03125000 </v>
    <v>       0.03125000 </v>
    <v>       0.03125000 </v>
   </varray>
  </kpoints>
  <varray name="dielectric_dft" >
   <v>       2.48082376       0.00001322       0.00011158 </v>
   <v>       0.00001619       2.48082046      -0.00000159 </v>
   <v>       0.00011078      -0.00000339       2.51334362 </v>
  </varray>
  <varray name="epsilon" >
   <v>       2.48082376       0.00001322       0.00011158 </v>
   <v>       0.00001619       2.48082046      -0.00000159 </v>
   <v>       0.00011078      -0.00000339       2.51334362 </v>
  </varray>
  <kpoints>
   <generation param="Gamma">
    <v type="int" name="divisions">       4        4        4 </v>
    <v name="usershift">      0.00000000       0.00000000       0.00000000 </v>
    <v name="genvec1">      0.25000000       0.00000000       0.00000000 </v>
    <v name="genvec2">      0.00000000       0.25000000       0.00000000 </v>
    <v name="genvec3">      0.00000000       0.00000000       0.25000000 </v>
    <v name="shift">      0.00000000       0.00000000       0.00000000 </v>
   </generation>
   <varray name="kpointlist" >
    <v>       0.00000000       0.00000000       0.00000000 </v>
    <v>       0.25000000       0.00000000       0.00000000 </v>
    <v>       0.00000000       0.25000000       0.00000000 </v>
    <v>      -0.25000000       0.25000000       0.00000000 </v>
    <v>       0.50000000       0.00000000       0.00000000 </v>
    <v>       0.00000000       0.50000000       0.00000000 </v>
    <v>       0.50000000       0.50000000       0.00000000 </v>
    <v>       0.25000000       0.25000000       0.00000000 </v>
    <v>      -0.25000000       0.50000000       0.00000000 </v>
    <v>       0.50000000       0.25000000       0.00000000 </v>
    <v>       0.00000000       0.00000000       0.25000000 </v>
    <v>       0.25000000       0.00000000       0.25000000 </v>
    <v>       0.00000000       0.25000000       0.25000000 </v>
    <v>      -0.25000000       0.25000000       0.25000000 </v>
    <v>      -0.25000000       0.00000000       0.25000000 </v>
    <v>       0.00000000      -0.25000000       0.25000000 </v>
    <v>       0.25000000      -0.25000000       0.25000000 </v>
    <v>       0.50000000       0.00000000       0.25000000 </v>
    <v>       0.00000000       0.50000000       0.25000000 </v>
    <v>       0.50000000       0.50000000       0.25000000 </v>
    <v>       0.25000000       0.25000000       0.25000000 </v>
    <v>      -0.25000000       0.50000000       0.25000000 </v>
    <v>       0.50000000       0.25000000       0.25000000 </v>
    <v>      -0.25000000      -0.25000000       0.25000000 </v>
    <v>       0.25000000       0.50000000       0.25000000 </v>
    <v>       0.50000000      -0.25000000       0.25000000 </v>
    <v>       0.00000000       0.00000000       0.50000000 </v>
    <v>       0.25000000       0.00000000       0.50000000 </v>
    <v>       0.00000000       0.25000000       0.50000000 </v>
    <v>      -0.25000000       0.25000000       0.50000000 </v>
    <v>       0.50000000       0.00000000       0.50000000 </v>
    <v>       0.00000000       0.50000000       0.50000000 </v>
    <v>       0.50000000       0.50000000       0.50000000 </v>
    <v>       0.25000000       0.25000000       0.50000000 </v>
    <v>      -0.25000000       0.50000000       0.50000000 </v>
    <v>       0.50000000       0.25000000       0.50000000 </v>
   </varray>
   <varray name="weights" >
    <v>       0.01562500 </v>
    <v>       0.03125000 </v>
    <v>       0.03125000 </v>
    <v>       0.03125000 </v>
    <v>       0.01562500 </v>
    <v>       0.01562500 </v>
    <v>       0.01562500 </v>
    <v>       0.03125000 </v>
    <v>       0.03125000 </v>
    <v>       0.03125000 </v>
    <v>       0.03125000 </v>
    <v>       0.03125000 </v>
    <v>       0.03125000 </v>
    <v>       0.03125000 </v>
    <v>       0.03125000 </v>
    <v>       0.03125000 </v>
    <v>       0.03125000 </v>
    <v>       0.03125000 </v>
    <v>       0.03125000 </v>
    <v>       0.03125000 </v>
    <v>       0.03125000 </v>
    <v>       0.03125000 </v>
    <v>       0.03125000 </v>
    <v>       0.03125000 </v>
    <v>       0.03125000 </v>
    <v>       0.03125000 </v>
    <v>       0.01562500 </v>
    <v>       0.03125000 </v>
    <v>       0.03125000 </v>
    <v>       0.03125000 </v>
    <v>       0.01562500 </v>
    <v>       0.01562500 </v>
    <v>       0.01562500 </v>
    <v>       0.03125000 </v>
    <v>       0.03125000 </v>
    <v>       0.03125000 </v>
   </varray>
  </kpoints>
  <array name="born_charges" >
   <dimension dim="1">ion</dimension>
   <set>
    <v>       2.98056899       0.00060558      -0.00021757 </v>
    <v>      -0.00095795       3.62049245      -0.32135116 </v>
    <v>      -0.00021624       0.27802550       3.42529570 </v>
   </set>
   <set>
    <v>       3.46075258       0.27695791       0.27840682 </v>
    <v>       0.27798687       3.14005693       0.16079597 </v>
    <v>      -0.24051265      -0.13876854       3.42651140 </v>
   </set>
   <set>
    <v>       3.46026919      -0.27724422      -0.27829622 </v>
    <v>      -0.27623428       3.14099649       0.16051832 </v>
    <v>       0.24107937      -0.13933125       3.42409590 </v>
   </set>
   <set>
    <v>      -1.31112212      -0.49350894      -0.31032679 </v>
    <v>      -0.43636747      -1.98972865      -0.67951458 </v>
    <v>      -0.24375723      -0.72172028      -1.71340965 </v>
   </set>
   <set>
    <v>      -2.22210467      -0.08984287       0.74296744 </v>
    <v>      -0.03264701      -1.07818343       0.07067048 </v>
    <v>       0.74650099       0.14989416      -1.71256374 </v>
   </set>
   <set>
    <v>      -1.41718639       0.49746201      -0.43259253 </v>
    <v>       0.55445601      -1.88349463       0.60761730 </v>
    <v>      -0.50287979       0.57148496      -1.71195252 </v>
   </set>
   <set>
    <v>      -1.31111286       0.49314200       0.31007966 </v>
    <v>       0.43583740      -1.98898787      -0.67848950 </v>
    <v>       0.24326429      -0.72124540      -1.71191032 </v>
   </set>
   <set>
    <v>      -2.22251627       0.09001033      -0.74328421 </v>
    <v>       0.03279151      -1.07829606       0.07102061 </v>
    <v>      -0.74664688       0.14980554      -1.71278727 </v>
   </set>
   <set>
    <v>      -1.41754845      -0.49758179       0.43326340 </v>
    <v>      -0.55486508      -1.88285522       0.60873257 </v>
    <v>       0.50316815       0.57185531      -1.71327949 </v>
   </set>
  </array>
  <time name="totalsc">  471.68  256.37</time>
  <eigenvalues>
   <array>
    <dimension dim="1">band</dimension>
    <dimension dim="2">kpoint</dimension>
    <dimension dim="3">spin</dimension>
    <field>eigene</field>
    <field>occ</field>
    <set>
     <set comment="spin 1">
      <set comment="kpoint 1">
       <r>  -18.1719    1.0000 </r>
       <r>  -16.6202    1.0000 </r>
       <r>  -16.6199    1.0000 </r>
       <r>  -15.9516    1.0000 </r>
       <r>  -15.9434    1.0000 </r>
       <r>  -15.9412    1.0000 </r>
       <r>   -6.8797    1.0000 </r>
       <r>   -6.8781    1.0000 </r>
       <r>   -4.1465    1.0000 </r>
       <r>   -4.0639    1.0000 </r>
       <r>   -3.9119    1.0000 </r>
       <r>   -3.9104    1.0000 </r>
       <r>   -1.6861    1.0000 </r>
       <r>   -1.6851    1.0000 </r>
       <r>   -1.3748    1.0000 </r>
[...]
       <r>    1.1198    1.0000 </r>
       <r>   10.2303    0.0000 </r>
       <r>   10.7237    0.0000 </r>
       <r>   11.0143    0.0000 </r>
       <r>   11.2016    0.0000 </r>
       <r>   11.5355    0.0000 </r>
      </set>
      <set comment="kpoint 34">
       <r>  -17.5753    1.0000 </r>
       <r>  -17.1857    1.0000 </r>
       <r>  -16.6524    1.0000 </r>
       <r>  -16.0617    1.0000 </r>
       <r>  -15.9936    1.0000 </r>
       <r>  -15.9921    1.0000 </r>
       <r>   -6.8564    1.0000 </r>
       <r>   -5.8698    1.0000 </r>
       <r>   -5.1562    1.0000 </r>
       <r>   -3.8972    1.0000 </r>
       <r>   -3.7961    1.0000 </r>
       <r>   -3.6155    1.0000 </r>
       <r>   -1.9735    1.0000 </r>
       <r>   -1.7464    1.0000 </r>
       <r>   -1.2648    1.0000 </r>
       <r>   -0.9001    1.0000 </r>
       <r>   -0.6228    1.0000 </r>
       <r>   -0.4219    1.0000 </r>
       <r>    0.1487    1.0000 </r>
       <r>    0.2554    1.0000 </r>
       <r>    0.3285    1.0000 </r>
       <r>    0.5711    1.0000 </r>
       <r>    0.7158    1.0000 </r>
       <r>    0.9241    1.0000 </r>
       <r>   10.1759    0.0000 </r>
       <r>   10.6500    0.0000 </r>
       <r>   10.9641    0.0000 </r>
       <r>   11.3063    0.0000 </r>
       <r>   11.7259    0.0000 </r>
      </set>
      <set comment="kpoint 35">
       <r>  -17.5751    1.0000 </r>
       <r>  -17.1862    1.0000 </r>
       <r>  -16.6523    1.0000 </r>
       <r>  -16.0617    1.0000 </r>
       <r>  -15.9932    1.0000 </r>
       <r>  -15.9920    1.0000 </r>
       <r>   -6.8568    1.0000 </r>
       <r>   -5.8704    1.0000 </r>
       <r>   -5.1561    1.0000 </r>
       <r>   -3.8985    1.0000 </r>
       <r>   -3.7939    1.0000 </r>
       <r>   -3.6156    1.0000 </r>
       <r>   -1.9743    1.0000 </r>
       <r>   -1.7474    1.0000 </r>
       <r>   -1.2647    1.0000 </r>
       <r>   -0.9005    1.0000 </r>
       <r>   -0.6220    1.0000 </r>
       <r>   -0.4225    1.0000 </r>
       <r>    0.1500    1.0000 </r>
       <r>    0.2560    1.0000 </r>
       <r>    0.3283    1.0000 </r>
       <r>    0.5713    1.0000 </r>
       <r>    0.7171    1.0000 </r>
       <r>    0.9241    1.0000 </r>
       <r>   10.1782    0.0000 </r>
       <r>   10.6521    0.0000 </r>
       <r>   10.9625    0.0000 </r>
       <r>   11.3035    0.0000 </r>
       <r>   11.7198    0.0000 </r>
      </set>
      <set comment="kpoint 36">
       <r>  -17.5752    1.0000 </r>
       <r>  -17.1860    1.0000 </r>
       <r>  -16.6523    1.0000 </r>
       <r>  -16.0617    1.0000 </r>
       <r>  -15.9937    1.0000 </r>
       <r>  -15.9917    1.0000 </r>
       <r>   -6.8566    1.0000 </r>
       <r>   -5.8701    1.0000 </r>
       <r>   -5.1562    1.0000 </r>
       <r>   -3.8978    1.0000 </r>
       <r>   -3.7950    1.0000 </r>
       <r>   -3.6155    1.0000 </r>
       <r>   -1.9739    1.0000 </r>
       <r>   -1.7469    1.0000 </r>
       <r>   -1.2647    1.0000 </r>
       <r>   -0.9003    1.0000 </r>
       <r>   -0.6224    1.0000 </r>
       <r>   -0.4222    1.0000 </r>
       <r>    0.1493    1.0000 </r>
       <r>    0.2557    1.0000 </r>
       <r>    0.3284    1.0000 </r>
       <r>    0.5712    1.0000 </r>
       <r>    0.7165    1.0000 </r>
       <r>    0.9241    1.0000 </r>
       <r>   10.1771    0.0000 </r>
       <r>   10.6510    0.0000 </r>
       <r>   10.9633    0.0000 </r>
       <r>   11.3049    0.0000 </r>
       <r>   11.7232    0.0000 </r>
      </set>
     </set>
    </set>
   </array>
  </eigenvalues>
  <separator name="orbital magnetization" >
   <v name="MAGDIPOLOUT">      0.00000000      0.00000000      0.00000000</v>
  </separator>
  <dos>
   <i name="efermi">      1.78483656 </i>
   <total>
    <array>
     <dimension dim="1">gridpoints</dimension>
     <dimension dim="2">spin</dimension>
     <field>energy</field>
     <field>total</field>
     <field>integrated</field>
     <set>
      <set comment="spin 1">
       <r>   -19.6805     0.0000     0.0000 </r>
       <r>   -19.5699     0.0000     0.0000 </r>
       <r>   -19.4593     0.0000     0.0000 </r>
       <r>   -19.3486     0.0000     0.0000 </r>
       <r>   -19.2380     0.0000     0.0000 </r>
       <r>   -19.1274     0.0000     0.0000 </r>
       <r>   -19.0167     0.0000     0.0000 </r>
       <r>   -18.9061     0.0000     0.0000 </r>
       <r>   -18.7955     0.0000     0.0000 </r>
       <r>   -18.6849     0.0000     0.0000 </r>
       <r>   -18.5742     0.0000     0.0000 </r>
       <r>   -18.4636     0.0000     0.0000 </r>
       <r>   -18.3530     0.0015     0.0002 </r>
       <r>   -18.2423     0.0455     0.0052 </r>
       <r>   -18.1317     0.2561     0.0335 </r>
       <r>   -18.0211     0.9593     0.1396 </r>
       <r>   -17.9105     2.1806     0.3809 </r>
       <r>   -17.7998     2.2490     0.6297 </r>
       <r>   -17.6892     3.1561     0.9788 </r>
       <r>   -17.5786     6.7082     1.7209 </r>
       <r>   -17.4679     3.7418     2.1349 </r>
       <r>   -17.3573     0.7675     2.2198 </r>
       <r>   -17.2467     1.6678     2.4043 </r>
       <r>   -17.1361     7.3341     3.2157 </r>
       <r>   -17.0254     4.7006     3.7357 </r>
       <r>   -16.9148     0.5607     3.7977 </r>
       <r>   -16.8042     0.9821     3.9064 </r>
       <r>   -16.6935     2.7468     4.2102 </r>
       <r>   -16.5829     6.4602     4.9249 </r>
       <r>   -16.4723     3.7464     5.3394 </r>
       <r>   -16.3617     1.9948     5.5601 </r>
       <r>   -16.2510     2.2037     5.8039 </r>
       <r>   -16.1404     3.0166     6.1376 </r>
       <r>   -16.0298    16.1096     7.9198 </r>
       <r>   -15.9191    27.1215    10.9202 </r>
       <r>   -15.8085     9.2256    11.9408 </r>
       <r>   -15.6979     0.5311    11.9995 </r>
       <r>   -15.5873     0.0042    12.0000 </r>
       <r>   -15.4766     0.0000    12.0000 </r>
       <r>   -15.3660     0.0000    12.0000 </r>
       <r>   -15.2554     0.0000    12.0000 </r>
       <r>   -15.1447     0.0000    12.0000 </r>
       <r>   -15.0341     0.0000    12.0000 </r>
       <r>   -14.9235     0.0000    12.0000 </r>
       <r>   -14.8129     0.0000    12.0000 </r>
       <r>   -14.7022     0.0000    12.0000 </r>
       <r>   -14.5916     0.0000    12.0000 </r>
       <r>   -14.4810     0.0000    12.0000 </r>
       <r>   -14.3704     0.0000    12.0000 </r>
       <r>   -14.2597     0.0000    12.0000 </r>
       <r>   -14.1491     0.0000    12.0000 </r>
       <r>   -14.0385     0.0000    12.0000 </r>
       <r>   -13.9278     0.0000    12.0000 </r>
       <r>   -13.8172     0.0000    12.0000 </r>
       <r>   -13.7066     0.0000    12.0000 </r>
       <r>   -13.5960     0.0000    12.0000 </r>
       <r>   -13.4853     0.0000    12.0000 </r>
       <r>   -13.3747     0.0000    12.0000 </r>
       <r>   -13.2641     0.0000    12.0000 </r>
       <r>   -13.1534     0.0000    12.0000 </r>
       <r>   -13.0428     0.0000    12.0000 </r>
       <r>   -12.9322     0.0000    12.0000 </r>
       <r>   -12.8216     0.0000    12.0000 </r>
       <r>   -12.7109     0.0000    12.0000 </r>
       <r>   -12.6003     0.0000    12.0000 </r>
       <r>   -12.4897     0.0000    12.0000 </r>
       <r>   -12.3790     0.0000    12.0000 </r>
       <r>   -12.2684     0.0000    12.0000 </r>
       <r>   -12.1578     0.0000    12.0000 </r>
       <r>   -12.0472     0.0000    12.0000 </r>
       <r>   -11.9365     0.0000    12.0000 </r>
       <r>   -11.8259     0.0000    12.0000 </r>
       <r>   -11.7153     0.0000    12.0000 </r>
       <r>   -11.6046     0.0000    12.0000 </r>
       <r>   -11.4940     0.0000    12.0000 </r>
       <r>   -11.3834     0.0000    12.0000 </r>
       <r>   -11.2728     0.0000    12.0000 </r>
       <r>   -11.1621     0.0000    12.0000 </r>
       <r>   -11.0515     0.0000    12.0000 </r>
       <r>   -10.9409     0.0000    12.0000 </r>
       <r>   -10.8302     0.0000    12.0000 </r>
       <r>   -10.7196     0.0000    12.0000 </r>
       <r>   -10.6090     0.0000    12.0000 </r>
       <r>   -10.4984     0.0000    12.0000 </r>
       <r>   -10.3877     0.0000    12.0000 </r>
       <r>   -10.2771     0.0000    12.0000 </r>
       <r>   -10.1665     0.0000    12.0000 </r>
       <r>   -10.0558     0.0000    12.0000 </r>
       <r>    -9.9452     0.0000    12.0000 </r>
       <r>    -9.8346     0.0000    12.0000 </r>
       <r>    -9.7240     0.0000    12.0000 </r>
       <r>    -9.6133     0.0000    12.0000 </r>
       <r>    -9.5027     0.0000    12.0000 </r>
       <r>    -9.3921     0.0000    12.0000 </r>
       <r>    -9.2814     0.0000    12.0000 </r>
       <r>    -9.1708     0.0000    12.0000 </r>
       <r>    -9.0602     0.0000    12.0000 </r>
       <r>    -8.9496     0.0000    12.0000 </r>
       <r>    -8.8389     0.0000    12.0000 </r>
       <r>    -8.7283     0.0000    12.0000 </r>
       <r>    -8.6177     0.0000    12.0000 </r>
       <r>    -8.5071     0.0000    12.0000 </r>
       <r>    -8.3964     0.0000    12.0000 </r>
       <r>    -8.2858     0.0000    12.0000 </r>
       <r>    -8.1752     0.0001    12.0000 </r>
       <r>    -8.0645     0.0118    12.0013 </r>
       <r>    -7.9539     0.1114    12.0136 </r>
       <r>    -7.8433     0.1385    12.0290 </r>
       <r>    -7.7327     0.0942    12.0394 </r>
       <r>    -7.6220     0.4182    12.0857 </r>
       <r>    -7.5114     0.9763    12.1937 </r>
       <r>    -7.4008     1.2327    12.3300 </r>
       <r>    -7.2901     1.9621    12.5471 </r>
       <r>    -7.1795     1.0246    12.6605 </r>
       <r>    -7.0689     1.3991    12.8152 </r>
       <r>    -6.9583     4.6316    13.3276 </r>
       <r>    -6.8476     4.7401    13.8520 </r>
       <r>    -6.7370     1.5055    14.0186 </r>
       <r>    -6.6264     0.1962    14.0403 </r>
       <r>    -6.5157     0.7036    14.1181 </r>
       <r>    -6.4051     0.7904    14.2055 </r>
       <r>    -6.2945     0.1177    14.2185 </r>
       <r>    -6.1839     0.0262    14.2214 </r>
       <r>    -6.0732     0.5306    14.2801 </r>
       <r>    -5.9626     3.4388    14.6606 </r>
       <r>    -5.8520     6.9585    15.4304 </r>
       <r>    -5.7413     2.9691    15.7588 </r>
       <r>    -5.6307     0.2009    15.7811 </r>
       <r>    -5.5201     0.0178    15.7830 </r>
       <r>    -5.4095     0.3529    15.8221 </r>
       <r>    -5.2988     0.9962    15.9323 </r>
       <r>    -5.1882     0.9270    16.0348 </r>
       <r>    -5.0776     2.1996    16.2782 </r>
       <r>    -4.9669     3.8986    16.7095 </r>
       <r>    -4.8563     2.9725    17.0383 </r>
       <r>    -4.7457     1.8734    17.2456 </r>
       <r>    -4.6351     1.8034    17.4451 </r>
       <r>    -4.5244     1.9929    17.6655 </r>
       <r>    -4.4138     0.6190    17.7340 </r>
       <r>    -4.3032     0.7507    17.8171 </r>
       <r>    -4.1925     3.0966    18.1597 </r>
       <r>    -4.0819     8.8782    19.1418 </r>
       <r>    -3.9713     9.6751    20.2122 </r>
       <r>    -3.8607     6.6536    20.9483 </r>
       <r>    -3.7500     6.7685    21.6970 </r>
       <r>    -3.6394     5.6613    22.3233 </r>
       <r>    -3.5288     5.6948    22.9533 </r>
       <r>    -3.4181     5.0865    23.5161 </r>
       <r>    -3.3075     2.6618    23.8105 </r>
       <r>    -3.1969     1.4503    23.9710 </r>
       <r>    -3.0863     0.2565    23.9994 </r>
       <r>    -2.9756     0.0058    24.0000 </r>
       <r>    -2.8650     0.0000    24.0000 </r>
       <r>    -2.7544     0.0000    24.0000 </r>
       <r>    -2.6438     0.0000    24.0000 </r>
       <r>    -2.5331     0.0000    24.0000 </r>
       <r>    -2.4225     0.0000    24.0000 </r>
       <r>    -2.3119     0.0000    24.0000 </r>
       <r>    -2.2012     0.0015    24.0002 </r>
       <r>    -2.0906     0.1638    24.0183 </r>
       <r>    -1.9800     2.6364    24.3099 </r>
       <r>    -1.8694     7.9605    25.1906 </r>
       <r>    -1.7587     8.1291    26.0899 </r>
       <r>    -1.6481     6.8178    26.8442 </r>
       <r>    -1.5375     5.3441    27.4354 </r>
       <r>    -1.4268     6.3711    28.1402 </r>
       <r>    -1.3162     8.4960    29.0801 </r>
       <r>    -1.2056     5.9410    29.7373 </r>
       <r>    -1.0950     3.8878    30.1674 </r>
       <r>    -0.9843     4.8538    30.7044 </r>
       <r>    -0.8737     8.3956    31.6332 </r>
       <r>    -0.7631     6.9360    32.4005 </r>
       <r>    -0.6524     7.3778    33.2167 </r>
       <r>    -0.5418     6.3213    33.9160 </r>
       <r>    -0.4312     6.2627    34.6088 </r>
       <r>    -0.3206     5.9511    35.2672 </r>
       <r>    -0.2099     8.0590    36.1587 </r>
       <r>    -0.0993     9.8391    37.2472 </r>
       <r>     0.0113     8.1688    38.1509 </r>
       <r>     0.1220     8.9426    39.1402 </r>
       <r>     0.2326     9.4940    40.1905 </r>
       <r>     0.3432    10.6985    41.3741 </r>
       <r>     0.4538     8.7353    42.3405 </r>
       <r>     0.5645     5.7925    42.9813 </r>
       <r>     0.6751     6.2831    43.6764 </r>
       <r>     0.7857     5.2742    44.2598 </r>
       <r>     0.8964     6.6565    44.9962 </r>
       <r>     1.0070     6.7048    45.7380 </r>
       <r>     1.1176     7.8328    46.6045 </r>
       <r>     1.2282     8.2962    47.5223 </r>
       <r>     1.3389     3.7634    47.9386 </r>
       <r>     1.4495     0.5415    47.9985 </r>
       <r>     1.5601     0.0132    48.0000 </r>
       <r>     1.6708     0.0000    48.0000 </r>
       <r>     1.7814     0.0000    48.0000 </r>
       <r>     1.8920     0.0000    48.0000 </r>
       <r>     2.0026     0.0000    48.0000 </r>
       <r>     2.1133     0.0000    48.0000 </r>
       <r>     2.2239     0.0000    48.0000 </r>
       <r>     2.3345     0.0000    48.0000 </r>
       <r>     2.4451     0.0000    48.0000 </r>
       <r>     2.5558     0.0000    48.0000 </r>
       <r>     2.6664     0.0000    48.0000 </r>
       <r>     2.7770     0.0000    48.0000 </r>
       <r>     2.8877     0.0000    48.0000 </r>
       <r>     2.9983     0.0000    48.0000 </r>
       <r>     3.1089     0.0000    48.0000 </r>
       <r>     3.2195     0.0000    48.0000 </r>
       <r>     3.3302     0.0000    48.0000 </r>
       <r>     3.4408     0.0000    48.0000 </r>
       <r>     3.5514     0.0000    48.0000 </r>
       <r>     3.6621     0.0000    48.0000 </r>
       <r>     3.7727     0.0000    48.0000 </r>
       <r>     3.8833     0.0000    48.0000 </r>
       <r>     3.9939     0.0000    48.0000 </r>
       <r>     4.1046     0.0000    48.0000 </r>
       <r>     4.2152     0.0000    48.0000 </r>
       <r>     4.3258     0.0000    48.0000 </r>
       <r>     4.4365     0.0000    48.0000 </r>
       <r>     4.5471     0.0000    48.0000 </r>
       <r>     4.6577     0.0000    48.0000 </r>
       <r>     4.7683     0.0000    48.0000 </r>
       <r>     4.8790     0.0000    48.0000 </r>
       <r>     4.9896     0.0000    48.0000 </r>
       <r>     5.1002     0.0000    48.0000 </r>
       <r>     5.2109     0.0000    48.0000 </r>
       <r>     5.3215     0.0000    48.0000 </r>
       <r>     5.4321     0.0000    48.0000 </r>
       <r>     5.5427     0.0000    48.0000 </r>
       <r>     5.6534     0.0000    48.0000 </r>
       <r>     5.7640     0.0000    48.0000 </r>
       <r>     5.8746     0.0000    48.0000 </r>
       <r>     5.9853     0.0000    48.0000 </r>
       <r>     6.0959     0.0000    48.0000 </r>
       <r>     6.2065     0.0000    48.0000 </r>
       <r>     6.3171     0.0000    48.0000 </r>
       <r>     6.4278     0.0000    48.0000 </r>
       <r>     6.5384     0.0000    48.0000 </r>
       <r>     6.6490     0.0000    48.0000 </r>
       <r>     6.7597     0.0000    48.0000 </r>
       <r>     6.8703     0.0000    48.0000 </r>
       <r>     6.9809     0.0000    48.0000 </r>
       <r>     7.0915     0.0001    48.0000 </r>
       <r>     7.2022     0.0120    48.0013 </r>
       <r>     7.3128     0.1121    48.0137 </r>
       <r>     7.4234     0.1360    48.0288 </r>
       <r>     7.5341     0.0218    48.0312 </r>
       <r>     7.6447     0.0004    48.0313 </r>
       <r>     7.7553     0.0030    48.0316 </r>
       <r>     7.8659     0.0880    48.0413 </r>
       <r>     7.9766     0.3144    48.0761 </r>
       <r>     8.0872     0.1835    48.0964 </r>
       <r>     8.1978     0.5002    48.1517 </r>
       <r>     8.3084     0.9282    48.2544 </r>
       <r>     8.4191     0.2356    48.2805 </r>
       <r>     8.5297     0.0567    48.2868 </r>
       <r>     8.6403     0.8111    48.3765 </r>
       <r>     8.7510     1.8588    48.5821 </r>
       <r>     8.8616     0.6395    48.6529 </r>
       <r>     8.9722     0.0303    48.6562 </r>
       <r>     9.0828     0.0006    48.6563 </r>
       <r>     9.1935     0.0290    48.6595 </r>
       <r>     9.3041     0.2517    48.6873 </r>
       <r>     9.4147     0.5732    48.7508 </r>
       <r>     9.5254     1.0747    48.8696 </r>
       <r>     9.6360     1.4486    49.0299 </r>
       <r>     9.7466     3.0661    49.3691 </r>
       <r>     9.8572     2.9768    49.6984 </r>
       <r>     9.9679     1.7529    49.8923 </r>
       <r>    10.0785     0.5462    49.9528 </r>
       <r>    10.1891     1.0789    50.0721 </r>
       <r>    10.2998     1.3722    50.2239 </r>
       <r>    10.4104     2.0567    50.4515 </r>
       <r>    10.5210     3.1205    50.7967 </r>
       <r>    10.6316     5.0669    51.3572 </r>
       <r>    10.7423     9.0562    52.3591 </r>
       <r>    10.8529     6.1932    53.0442 </r>
       <r>    10.9635     6.5301    53.7666 </r>
       <r>    11.0742     7.3609    54.5810 </r>
       <r>    11.1848     3.0172    54.9148 </r>
       <r>    11.2954     3.6677    55.3205 </r>
       <r>    11.4060     5.6582    55.9465 </r>
       <r>    11.5167     6.3198    56.6456 </r>
       <r>    11.6273     5.3469    57.2371 </r>
       <r>    11.7379     3.3672    57.6096 </r>
       <r>    11.8486     2.1678    57.8494 </r>
       <r>    11.9592     0.7345    57.9307 </r>
       <r>    12.0698     0.4930    57.9852 </r>
       <r>    12.1804     0.1291    57.9995 </r>
       <r>    12.2911     0.0043    58.0000 </r>
       <r>    12.4017     0.0000    58.0000 </r>
       <r>    12.5123     0.0000    58.0000 </r>
       <r>    12.6230     0.0000    58.0000 </r>
       <r>    12.7336     0.0000    58.0000 </r>
       <r>    12.8442     0.0000    58.0000 </r>
       <r>    12.9548     0.0000    58.0000 </r>
       <r>    13.0655     0.0000    58.0000 </r>
       <r>    13.1761     0.0000    58.0000 </r>
       <r>    13.2867     0.0000    58.0000 </r>
       <r>    13.3973     0.0000    58.0000 </r>
       <r>    13.5080     0.0000    58.0000 </r>
      </set>
     </set>
    </array>
   </total>
  </dos>
 </calculation>
 <structure name="finalpos" >
  <crystal>
   <varray name="basis" >
    <v>       4.87342988       0.00000000       0.00000000 </v>
    <v>      -2.43671494       4.22051408       0.00000000 </v>
    <v>       0.00000000       0.00000000       5.37418982 </v>
   </varray>
   <i name="volume">    110.53837516 </i>
   <varray name="rec_basis" >
    <v>       0.20519429       0.11846898      -0.00000000 </v>
    <v>       0.00000000       0.23693796       0.00000000 </v>
    <v>       0.00000000      -0.00000000       0.18607456 </v>
   </varray>
  </crystal>
  <varray name="positions" >
   <v>       0.46471133       0.00005676       0.66674904 </v>
   <v>       0.00002838       0.46469003       0.33329215 </v>
   <v>       0.53529575       0.53532413       0.99995882 </v>
   <v>       0.13566567       0.72386811       0.55421759 </v>
   <v>       0.27594773       0.41140765       0.22077033 </v>
   <v>       0.58868914       0.86466199       0.88757839 </v>
   <v>       0.41121315       0.27590308       0.77917338 </v>
   <v>       0.86448419       0.58839694       0.11239279 </v>
   <v>       0.72393787       0.13563773       0.44586751 </v>
  </varray>
 </structure>
</modeling>
