<?xml version="1.0" encoding="ISO-8859-1"?>
<modeling>
 <generator>
  <i name="program" type="string">vasp </i>
  <i name="version" type="string">6.4.1  </i>
  <i name="subversion" type="string">05Apr23 (build Sep  6 2023 20:49:31) complex                          parallel </i>
  <i name="platform" type="string">LinuxNV </i>
  <i name="date" type="string">2023 10 19 </i>
  <i name="time" type="string">14:08:49 </i>
 </generator>
 <incar>
  <i type="string" name="PREC">Accurate</i>
  <i type="string" name="ALGO">Fast</i>
  <i name="EDIFF">      0.00000001</i>
  <i name="ENCUT">    500.00000000</i>
  <i type="int" name="ISMEAR">     0</i>
  <i name="SIGMA">      0.10000000</i>
  <i type="logical" name="LEPSILON"> T  </i>
 </incar>
 <primitive_cell>
  <structure name="primitive_cell" >
   <crystal>
    <varray name="basis" >
     <v>       4.87342988       0.00000000       0.00000000 </v>
     <v>      -2.43671494       4.22051408       0.00000000 </v>
     <v>       0.00000000       0.00000000       5.37418982 </v>
    </varray>
    <i name="volume">    110.53837516 </i>
    <varray name="rec_basis" >
     <v>       0.20519429       0.11846898      -0.00000000 </v>
     <v>       0.00000000       0.23693796       0.00000000 </v>
     <v>       0.00000000      -0.00000000       0.18607456 </v>
    </varray>
   </crystal>
   <varray name="positions" >
    <v>       0.46468182       0.00000000       0.66666667 </v>
    <v>       0.99995912       0.46466308       0.33342349 </v>
    <v>       0.53529604       0.53533692       0.99990985 </v>
    <v>       0.13531969       0.72378415       0.55406342 </v>
    <v>       0.27602419       0.41149610       0.22085176 </v>
    <v>       0.58851556       0.86432799       0.88765113 </v>
    <v>       0.41153554       0.27621585       0.77926991 </v>
    <v>       0.86452809       0.58850390       0.11248157 </v>
    <v>       0.72418757       0.13567201       0.44568220 </v>
   </varray>
  </structure>
  <varray name="primitive_index" >
   <v type="int" >        1 </v>
   <v type="int" >        2 </v>
   <v type="int" >        3 </v>
   <v type="int" >        4 </v>
   <v type="int" >        5 </v>
   <v type="int" >        6 </v>
   <v type="int" >        7 </v>
   <v type="int" >        8 </v>
   <v type="int" >        9 </v>
  </varray>
 </primitive_cell>
 <kpoints>
  <generation param="Gamma">
   <v type="int" name="divisions">       4        4        4 </v>
   <v name="usershift">      0.00000000       0.00000000       0.00000000 </v>
   <v name="genvec1">      0.25000000       0.00000000       0.00000000 </v>
   <v name="genvec2">      0.00000000       0.25000000       0.00000000 </v>
   <v name="genvec3">      0.00000000       0.00000000       0.25000000 </v>
   <v name="shift">      0.00000000       0.00000000       0.00000000 </v>
  </generation>
  <varray name="kpointlist" >
   <v>       0.00000000       0.00000000       0.00000000 </v>
   <v>       0.25000000       0.00000000       0.00000000 </v>
   <v>       0.00000000       0.25000000       0.00000000 </v>
   <v>       0.50000000       0.00000000       0.00000000 </v>
   <v>       0.00000000       0.50000000       0.00000000 </v>
   <v>       0.25000000       0.25000000       0.00000000 </v>
   <v>       0.50000000       0.25000000       0.00000000 </v>
   <v>       0.00000000       0.00000000       0.25000000 </v>
   <v>       0.25000000       0.00000000       0.25000000 </v>
   <v>       0.00000000       0.25000000       0.25000000 </v>
   <v>      -0.25000000       0.00000000       0.25000000 </v>
   <v>       0.00000000      -0.25000000       0.25000000 </v>
   <v>       0.50000000       0.00000000       0.25000000 </v>
   <v>       0.00000000       0.50000000       0.25000000 </v>
   <v>       0.25000000       0.25000000       0.25000000 </v>
   <v>       0.50000000       0.25000000       0.25000000 </v>
   <v>      -0.25000000      -0.25000000       0.25000000 </v>
   <v>       0.00000000       0.00000000       0.50000000 </v>
   <v>       0.25000000       0.00000000       0.50000000 </v>
   <v>       0.00000000       0.25000000       0.50000000 </v>
   <v>       0.50000000       0.00000000       0.50000000 </v>
   <v>       0.00000000       0.50000000       0.50000000 </v>
   <v>       0.25000000       0.25000000       0.50000000 </v>
   <v>       0.50000000       0.25000000       0.50000000 </v>
  </varray>
  <varray name="weights" >
   <v>       0.01562500 </v>
   <v>       0.06250000 </v>
   <v>       0.03125000 </v>
   <v>       0.03125000 </v>
   <v>       0.01562500 </v>
   <v>       0.06250000 </v>
   <v>       0.03125000 </v>
   <v>       0.03125000 </v>
   <v>       0.06250000 </v>
   <v>       0.03125000 </v>
   <v>       0.06250000 </v>
   <v>       0.03125000 </v>
   <v>       0.06250000 </v>
   <v>       0.03125000 </v>
   <v>       0.06250000 </v>
   <v>       0.06250000 </v>
   <v>       0.06250000 </v>
   <v>       0.01562500 </v>
   <v>       0.06250000 </v>
   <v>       0.03125000 </v>
   <v>       0.03125000 </v>
   <v>       0.01562500 </v>
   <v>       0.06250000 </v>
   <v>       0.03125000 </v>
  </varray>
 </kpoints>
 <parameters>
  <separator name="general" >
   <i type="string" name="SYSTEM">unknown system</i>
   <i type="logical" name="LCOMPAT"> F  </i>
  </separator>
  <separator name="electronic" >
   <i type="string" name="PREC">accura</i>
   <i name="ENMAX">    500.00000000</i>
   <i name="ENAUG">    605.39200000</i>
   <i name="EDIFF">      0.00000001</i>
   <i type="int" name="IALGO">    68</i>
   <i type="int" name="IWAVPR">    10</i>
   <i type="int" name="NBANDS">    29</i>
   <i type="int" name="NBANDSLOW">    -1</i>
   <i type="int" name="NBANDSHIGH">    -1</i>
   <i name="NELECT">     48.00000000</i>
   <i type="int" name="TURBO">     0</i>
   <i type="int" name="IRESTART">     0</i>
   <i type="int" name="NREBOOT">     0</i>
   <i type="int" name="NMIN">     0</i>
   <i name="EREF">      0.00000000</i>
   <separator name="electronic smearing" >
    <i type="int" name="ISMEAR">     0</i>
    <i name="SIGMA">      0.10000000</i>
    <i name="KSPACING">      0.50000000</i>
    <i type="logical" name="KGAMMA"> T  </i>
    <i type="logical" name="KBLOWUP"> T  </i>
   </separator>
   <separator name="electronic projectors" >
    <i type="logical" name="LREAL"> F  </i>
    <v name="ROPT">      0.00000000      0.00000000</v>
    <i type="int" name="LMAXPAW">  -100</i>
    <i type="int" name="LMAXMIX">     2</i>
    <i type="logical" name="NLSPLINE"> F  </i>
   </separator>
   <separator name="electronic startup" >
    <i type="int" name="ISTART">     0</i>
    <i type="int" name="ICHARG">     2</i>
    <i type="int" name="INIWAV">     1</i>
   </separator>
   <separator name="electronic spin" >
    <i type="int" name="ISPIN">     1</i>
    <i type="logical" name="LNONCOLLINEAR"> F  </i>
    <v name="MAGMOM">      1.00000000      1.00000000      1.00000000      1.00000000      1.00000000      1.00000000      1.00000000      1.00000000      1.00000000</v>
    <i name="NUPDOWN">     -1.00000000</i>
    <i type="logical" name="LSORBIT"> F  </i>
    <v name="SAXIS">      0.00000000      0.00000000      1.00000000</v>
    <i type="logical" name="LSPIRAL"> F  </i>
    <v name="QSPIRAL">      0.00000000      0.00000000      0.00000000</v>
    <i type="logical" name="LZEROZ"> F  </i>
   </separator>
   <separator name="electronic exchange-correlation" >
    <i type="logical" name="LASPH"> F  </i>
    <i type="logical" name="LMETAGGA"> F  </i>
   </separator>
   <separator name="electronic convergence" >
    <i type="int" name="NELM">    60</i>
    <i type="int" name="NELMDL">    -5</i>
    <i type="int" name="NELMIN">     2</i>
    <i name="ENINI">    500.00000000</i>
    <separator name="electronic convergence detail" >
     <i type="logical" name="LDIAG"> T  </i>
     <i type="logical" name="LSUBROT"> F  </i>
     <i name="WEIMIN">      0.00000000</i>
     <i name="EBREAK">      0.00000000</i>
     <i name="DEPER">      0.30000000</i>
     <i type="int" name="NRMM">     4</i>
     <i name="TIME">      0.40000000</i>
    </separator>
   </separator>
   <separator name="electronic mixer" >
    <i name="AMIX">      0.40000000</i>
    <i name="BMIX">      1.00000000</i>
    <i name="AMIN">      0.10000000</i>
    <i name="AMIX_MAG">      1.60000000</i>
    <i name="BMIX_MAG">      1.00000000</i>
    <separator name="electronic mixer details" >
     <i type="int" name="IMIX">     4</i>
     <i type="logical" name="MIXFIRST"> F  </i>
     <i type="int" name="MAXMIX">   -45</i>
     <i name="WC">    100.00000000</i>
     <i type="int" name="INIMIX">     1</i>
     <i type="int" name="MIXPRE">     1</i>
     <i type="int" name="MREMOVE">     5</i>
    </separator>
   </separator>
   <separator name="electronic dipolcorrection" >
    <i type="logical" name="LDIPOL"> F  </i>
    <i type="logical" name="LMONO"> F  </i>
    <i type="int" name="IDIPOL">     0</i>
    <i name="EPSILON">      1.00000000</i>
    <v name="DIPOL">   -100.00000000   -100.00000000   -100.00000000</v>
    <i name="EFIELD">      0.00000000</i>
   </separator>
  </separator>
  <separator name="grids" >
   <i type="int" name="NGX">    36</i>
   <i type="int" name="NGY">    36</i>
   <i type="int" name="NGZ">    40</i>
   <i type="int" name="NGXF">    72</i>
   <i type="int" name="NGYF">    72</i>
   <i type="int" name="NGZF">    80</i>
   <i type="logical" name="ADDGRID"> F  </i>
  </separator>
  <separator name="ionic" >
   <i type="int" name="NSW">     0</i>
   <i type="int" name="IBRION">    -1</i>
   <i type="int" name="MDALGO">     0</i>
   <i type="int" name="ISIF">     2</i>
   <i name="PSTRESS">      0.00000000</i>
   <i name="EDIFFG">      0.00000010</i>
   <i type="int" name="NFREE">     0</i>
   <i name="POTIM">      0.50000000</i>
   <i name="SMASS">     -3.00000000</i>
   <i name="SCALEE">      1.00000000</i>
  </separator>
  <separator name="ionic md" >
   <i name="TEBEG">      0.00010000</i>
   <i name="TEEND">      0.00010000</i>
   <i type="int" name="NBLOCK">     1</i>
   <i type="int" name="KBLOCK">     1</i>
   <i type="int" name="NPACO">   256</i>
   <i name="APACO">     10.00000000</i>
  </separator>
  <separator name="symmetry" >
   <i type="int" name="ISYM">     2</i>
   <i name="SYMPREC">      0.00001000</i>
  </separator>
  <separator name="dos" >
   <i type="int" name="LORBIT">     0</i>
   <v name="RWIGS">     -1.00000000     -1.00000000</v>
   <i type="int" name="NEDOS">   301</i>
   <i name="EMIN">     10.00000000</i>
   <i name="EMAX">    -10.00000000</i>
   <i name="EFERMI">      0.00000000</i>
  </separator>
  <separator name="writing" >
   <i type="int" name="NWRITE">     2</i>
   <i type="logical" name="LWAVE"> T  </i>
   <i type="logical" name="LDOWNSAMPLE"> F  </i>
   <i type="logical" name="LCHARG"> T  </i>
   <i type="logical" name="LPARD"> F  </i>
   <i type="logical" name="LVTOT"> F  </i>
   <i type="logical" name="LVHAR"> F  </i>
   <i type="logical" name="LELF"> F  </i>
   <i type="logical" name="LOPTICS"> F  </i>
   <v name="STM">      0.00000000      0.00000000      0.00000000      0.00000000      0.00000000      0.00000000      0.00000000</v>
  </separator>
  <separator name="performance" >
   <i type="int" name="NPAR">     1</i>
   <i type="int" name="NSIM">     4</i>
   <i type="int" name="NBLK">    -1</i>
   <i type="logical" name="LPLANE"> T  </i>
   <i type="logical" name="LSCALAPACK"> T  </i>
   <i type="logical" name="LSCAAWARE"> F  </i>
   <i type="logical" name="LSCALU"> F  </i>
   <i type="logical" name="LASYNC"> F  </i>
   <i type="logical" name="LORBITALREAL"> F  </i>
  </separator>
  <separator name="miscellaneous" >
   <i type="int" name="IDIOT">     3</i>
   <i type="int" name="PHON_NSTRUCT">    -1</i>
   <i type="logical" name="LMUSIC"> F  </i>
   <v name="POMASS">     28.08500000     16.00000000</v>
   <v name="DARWINR">      0.00000000      0.00000000</v>
   <v name="DARWINV">      1.00000000      1.00000000</v>
   <i type="logical" name="LCORR"> T  </i>
  </separator>
  <i type="logical" name="GGA_COMPAT"> T  </i>
  <i type="logical" name="LBERRY"> F  </i>
  <i type="int" name="ICORELEVEL">     0</i>
  <i type="logical" name="LDAU"> F  </i>
  <i type="int" name="I_CONSTRAINED_M">     0</i>
  <separator name="electronic exchange-correlation" >
   <i type="string" name="GGA">--</i>
   <i type="int" name="VOSKOWN">     0</i>
   <i type="logical" name="LHFCALC"> F  </i>
   <i type="string" name="PRECFOCK"></i>
   <i type="logical" name="LSYMGRAD"> F  </i>
   <i type="logical" name="LHFONE"> F  </i>
   <i type="logical" name="LRHFCALC"> F  </i>
   <i type="logical" name="LTHOMAS"> F  </i>
   <i type="logical" name="LMODELHF"> F  </i>
   <i type="logical" name="LFOCKACE"> F  </i>
   <i name="ENCUT4O">     -1.00000000</i>
   <i type="int" name="EXXOEP">     0</i>
   <i type="int" name="FOURORBIT">     0</i>
   <i name="AEXX">      0.00000000</i>
   <i name="HFALPHA">      0.00000000</i>
   <i name="MCALPHA">      0.00000000</i>
   <i name="ALDAX">      1.00000000</i>
   <i name="AGGAX">      1.00000000</i>
   <i name="ALDAC">      1.00000000</i>
   <i name="AGGAC">      1.00000000</i>
   <i type="int" name="NKREDX">     1</i>
   <i type="int" name="NKREDY">     1</i>
   <i type="int" name="NKREDZ">     1</i>
   <i type="logical" name="SHIFTRED"> F  </i>
   <i type="logical" name="ODDONLY"> F  </i>
   <i type="logical" name="EVENONLY"> F  </i>
   <i type="int" name="LMAXFOCK">     0</i>
   <i type="int" name="NMAXFOCKAE">     0</i>
   <i type="logical" name="LFOCKAEDFT"> F  </i>
   <i name="HFSCREEN">      0.00000000</i>
   <i name="HFSCREENC">      0.00000000</i>
   <i type="int" name="NBANDSGWLOW">     0</i>
  </separator>
  <separator name="vdW DFT" >
   <i type="logical" name="LUSE_VDW"> F  </i>
   <i type="int" name="IVDW_NL">     1</i>
   <i type="logical" name="LSPIN_VDW"> F  </i>
   <i name="Zab_VDW">     -0.84910000</i>
   <i name="PARAM1">      0.12340000</i>
   <i name="PARAM2">      1.00000000</i>
   <i name="PARAM3">      0.00000000</i>
  </separator>
  <separator name="model GW" >
   <i type="int" name="MODEL_GW">     0</i>
   <i name="MODEL_EPS0">      7.36922501</i>
   <i name="MODEL_ALPHA">      1.00000000</i>
  </separator>
  <separator name="linear response parameters" >
   <i type="logical" name="LEPSILON"> T  </i>
   <i type="logical" name="LRPA"> F  </i>
   <i type="logical" name="LNABLA"> F  </i>
   <i type="logical" name="LVEL"> F  </i>
   <i name="CSHIFT">      0.10000000</i>
   <i name="OMEGAMAX">     -1.00000000</i>
   <i name="DEG_THRESHOLD">      0.00200000</i>
   <i name="RTIME">     -0.10000000</i>
   <i name="WPLASMAI">      0.00000000</i>
   <v name="DFIELD">      0.00000000      0.00000000      0.00000000</v>
   <v name="WPLASMA">      0.00000000      0.00000000      0.00000000      0.00000000      0.00000000      0.00000000      0.00000000      0.00000000      0.00000000</v>
  </separator>
  <separator name="orbital magnetization" >
   <i type="logical" name="NUCIND"> F  </i>
   <v name="MAGPOS">      0.00000000      0.00000000      0.00000000</v>
   <i type="logical" name="LNICSALL"> T  </i>
   <i type="logical" name="ORBITALMAG"> F  </i>
   <i type="logical" name="LMAGBLOCH"> F  </i>
   <i type="logical" name="LCHIMAG"> F  </i>
   <i type="logical" name="LGAUGE"> T  </i>
   <i type="int" name="MAGATOM">     0</i>
   <v name="MAGDIPOL">      0.00000000      0.00000000      0.00000000</v>
   <v name="AVECCONST">      0.00000000      0.00000000      0.00000000</v>
  </separator>
  <separator name="response functions" >
   <i type="logical" name="LALL_IN_ONE"> F  </i>
   <i type="int" name="IALL_IN_ONE">    -1</i>
   <i type="int" name="NBANDS_WAVE">    -1</i>
   <i type="logical" name="LFINITE_TEMPERATURE"> F  </i>
   <i type="logical" name="LADDER"> F  </i>
   <i type="logical" name="LRPAFORCE"> F  </i>
   <i type="logical" name="LFXC"> F  </i>
   <i type="logical" name="LHARTREE"> T  </i>
   <i type="int" name="IBSE">     0</i>
   <v type="int" name="KPOINT">    -1     0     0     0</v>
   <i type="logical" name="LTCTC"> F  </i>
   <i type="logical" name="LTCTE"> F  </i>
   <i type="logical" name="LTETE"> F  </i>
   <i type="logical" name="LTRIPLET"> F  </i>
   <i type="logical" name="LFXCEPS"> F  </i>
   <i type="logical" name="LFXHEG"> F  </i>
   <i type="int" name="NATURALO">     2</i>
   <i type="logical" name="LHOLEGF"> F  </i>
   <i type="logical" name="L2ORDER"> F  </i>
   <i type="logical" name="LDMP1"> F  </i>
   <i type="logical" name="LMP2LT"> F  </i>
   <i type="logical" name="LSMP2LT"> F  </i>
   <i type="logical" name="LGWLF"> F  </i>
   <i name="ENCUTGW">     -1.60000002</i>
   <i name="ENCUTGWSOFT">     -1.60000002</i>
   <i name="ENCUTLF">     -1.00000000</i>
   <i type="logical" name="LESF_SPLINES"> F  </i>
   <i type="int" name="LMAXMP2">    -1</i>
   <i name="SCISSOR">      0.00000000</i>
   <i type="int" name="NOMEGA">     0</i>
   <i type="int" name="NOMEGAR">     0</i>
   <i type="int" name="NBANDSGW">    -1</i>
   <i type="int" name="NBANDSO">    -1</i>
   <i type="int" name="NBANDSV">    -1</i>
   <i type="int" name="NELMGW">     1</i>
   <i type="int" name="NELMHF">     1</i>
   <i type="int" name="DIM">     3</i>
   <i type="int" name="IESPILON">     4</i>
   <i type="int" name="ANTIRES">     0</i>
   <i name="OMEGAMAX">    -30.00000000</i>
   <i name="OMEGAMIN">    -30.00000000</i>
   <i name="OMEGATL">   -200.00000000</i>
   <i type="int" name="OMEGAGRID">     0</i>
   <i name="CSHIFT">     -0.10000000</i>
   <i type="logical" name="LSELFENERGY"> F  </i>
   <i type="logical" name="LSPECTRAL"> F  </i>
   <i type="logical" name="LSPECTRALGW"> F  </i>
   <i type="logical" name="LSINGLES"> F  </i>
   <i type="logical" name="LFERMIGW"> F  </i>
   <i type="logical" name="ODDONLYGW"> F  </i>
   <i type="logical" name="EVENONLYGW"> F  </i>
   <i type="int" name="NKREDLFX">     1</i>
   <i type="int" name="NKREDLFY">     1</i>
   <i type="int" name="NKREDLFZ">     1</i>
   <i type="int" name="MAXMEM">  2800</i>
   <i type="int" name="TELESCOPE">     0</i>
   <i type="int" name="NTAUPAR">    -1</i>
   <i type="int" name="NOMEGAPAR">    -1</i>
   <i name="DAMP_NEWTON">      0.80000001</i>
   <i name="LAMBDA">      1.00000000</i>
  </separator>
  <separator name="External order field" >
   <i name="OFIELD_KAPPA">      0.00000000</i>
   <v name="OFIELD_K">      0.00000000      0.00000000      0.00000000</v>
   <i name="OFIELD_Q6_NEAR">      0.00000000</i>
   <i name="OFIELD_Q6_FAR">      0.00000000</i>
   <i name="OFIELD_A">      0.00000000</i>
  </separator>
  <separator name="optional k-points parameters" >
   <i type="int" name="KPOINTS_OPT_MODE">     1</i>
   <i type="logical" name="LKPOINTS_OPT"> F  </i>
  </separator>
 </parameters>
 <atominfo>
  <atoms>       9 </atoms>
  <types>       2 </types>
  <array name="atoms" >
   <dimension dim="1">ion</dimension>
   <field type="string">element</field>
   <field type="int">atomtype</field>
   <set>
    <rc><c>Si</c><c>   1</c></rc>
    <rc><c>Si</c><c>   1</c></rc>
    <rc><c>Si</c><c>   1</c></rc>
    <rc><c>O </c><c>   2</c></rc>
    <rc><c>O </c><c>   2</c></rc>
    <rc><c>O </c><c>   2</c></rc>
    <rc><c>O </c><c>   2</c></rc>
    <rc><c>O </c><c>   2</c></rc>
    <rc><c>O </c><c>   2</c></rc>
   </set>
  </array>
  <array name="atomtypes" >
   <dimension dim="1">type</dimension>
   <field type="int">atomspertype</field>
   <field type="string">element</field>
   <field>mass</field>
   <field>valence</field>
   <field type="string">pseudopotential</field>
   <set>
    <rc><c>   3</c><c>Si</c><c>     28.08500000</c><c>      4.00000000</c><c>  PAW_PBE Si 05Jan2001                  </c></rc>
    <rc><c>   6</c><c>O </c><c>     16.00000000</c><c>      6.00000000</c><c>  PAW_PBE O 08Apr2002                   </c></rc>
   </set>
  </array>
 </atominfo>
 <structure name="initialpos" >
  <crystal>
   <varray name="basis" >
    <v>       4.87342988       0.00000000       0.00000000 </v>
    <v>      -2.43671494       4.22051408       0.00000000 </v>
    <v>       0.00000000       0.00000000       5.37418982 </v>
   </varray>
   <i name="volume">    110.53837516 </i>
   <varray name="rec_basis" >
    <v>       0.20519429       0.11846898      -0.00000000 </v>
    <v>       0.00000000       0.23693796       0.00000000 </v>
    <v>       0.00000000      -0.00000000       0.18607456 </v>
   </varray>
  </crystal>
  <varray name="positions" >
   <v>       0.46468182       0.00000000       0.66666667 </v>
   <v>       0.99995912       0.46466308       0.33342349 </v>
   <v>       0.53529604       0.53533692       0.99990985 </v>
   <v>       0.13531969       0.72378415       0.55406342 </v>
   <v>       0.27602419       0.41149610       0.22085176 </v>
   <v>       0.58851556       0.86432799       0.88765113 </v>
   <v>       0.41153554       0.27621585       0.77926991 </v>
   <v>       0.86452809       0.58850390       0.11248157 </v>
   <v>       0.72418757       0.13567201       0.44568220 </v>
  </varray>
 </structure>
 <calculation>
  <scstep>
   <time name="dav">    0.79    0.79</time>
   <time name="total">    0.82    0.80</time>
   <energy>
    <i name="alphaZ">     71.30271804 </i>
    <i name="ewald">  -1930.19230385 </i>
    <i name="hartreedc">   -909.39806845 </i>
    <i name="XCdc">    141.70970699 </i>
    <i name="pawpsdc">   2343.66826019 </i>
    <i name="pawaedc">  -2301.68043871 </i>
    <i name="eentropy">     -0.00752374 </i>
    <i name="bandstr">    -17.83640228 </i>
    <i name="atom">   2903.33737771 </i>
    <i name="e_fr_energy">    300.90332590 </i>
    <i name="e_wo_entrp">    300.91084964 </i>
    <i name="e_0_energy">    300.90708777 </i>
   </energy>
  </scstep>
  <scstep>
   <time name="dav">    0.82    0.82</time>
   <time name="total">    0.82    0.82</time>
   <energy>
    <i name="e_fr_energy">    -60.95734647 </i>
    <i name="e_wo_entrp">    -60.95734647 </i>
    <i name="e_0_energy">    -60.95734647 </i>
   </energy>
  </scstep>
  <scstep>
   <time name="dav">    0.76    0.77</time>
   <time name="total">    0.77    0.77</time>
   <energy>
    <i name="e_fr_energy">    -80.16459840 </i>
    <i name="e_wo_entrp">    -80.16459840 </i>
    <i name="e_0_energy">    -80.16459840 </i>
   </energy>
  </scstep>
  <scstep>
   <time name="dav">    0.77    0.77</time>
   <time name="total">    0.77    0.77</time>
   <energy>
    <i name="e_fr_energy">    -80.41804586 </i>
    <i name="e_wo_entrp">    -80.41804586 </i>
    <i name="e_0_energy">    -80.41804586 </i>
   </energy>
  </scstep>
  <scstep>
   <time name="dav">    0.75    0.76</time>
   <time name="total">    0.89    0.86</time>
   <energy>
    <i name="e_fr_energy">    -80.42318413 </i>
    <i name="e_wo_entrp">    -80.42318413 </i>
    <i name="e_0_energy">    -80.42318413 </i>
   </energy>
  </scstep>
  <scstep>
   <time name="diag">    0.08    0.08</time>
   <time name="diis">    0.85    0.86</time>
   <time name="orth">    0.01    0.01</time>
   <time name="total">    1.10    1.05</time>
   <energy>
    <i name="e_fr_energy">    -70.67404108 </i>
    <i name="e_wo_entrp">    -70.67404108 </i>
    <i name="e_0_energy">    -70.67404108 </i>
   </energy>
  </scstep>
  <scstep>
   <time name="diag">    0.08    0.08</time>
   <time name="diis">    0.94    0.95</time>
   <time name="orth">    0.01    0.01</time>
   <time name="total">    1.19    1.14</time>
   <energy>
    <i name="e_fr_energy">    -70.97612729 </i>
    <i name="e_wo_entrp">    -70.97612729 </i>
    <i name="e_0_energy">    -70.97612729 </i>
   </energy>
  </scstep>
  <scstep>
   <time name="diag">    0.08    0.08</time>
   <time name="diis">    0.95    0.95</time>
   <time name="orth">    0.01    0.01</time>
   <time name="total">    1.19    1.15</time>
   <energy>
    <i name="e_fr_energy">    -70.96810402 </i>
    <i name="e_wo_entrp">    -70.96810402 </i>
    <i name="e_0_energy">    -70.96810402 </i>
   </energy>
  </scstep>
  <scstep>
   <time name="diag">    0.08    0.08</time>
   <time name="diis">    0.97    0.97</time>
   <time name="orth">    0.01    0.01</time>
   <time name="total">    1.21    1.17</time>
   <energy>
    <i name="e_fr_energy">    -70.98720755 </i>
    <i name="e_wo_entrp">    -70.98720755 </i>
    <i name="e_0_energy">    -70.98720755 </i>
   </energy>
  </scstep>
  <scstep>
   <time name="diag">    0.08    0.08</time>
   <time name="diis">    0.97    0.97</time>
   <time name="orth">    0.01    0.01</time>
   <time name="total">    1.22    1.17</time>
   <energy>
    <i name="e_fr_energy">    -70.99251287 </i>
    <i name="e_wo_entrp">    -70.99251287 </i>
    <i name="e_0_energy">    -70.99251287 </i>
   </energy>
  </scstep>
  <scstep>
   <time name="diag">    0.08    0.08</time>
   <time name="diis">    0.97    0.97</time>
   <time name="orth">    0.01    0.01</time>
   <time name="total">    1.21    1.16</time>
   <energy>
    <i name="e_fr_energy">    -70.98865428 </i>
    <i name="e_wo_entrp">    -70.98865428 </i>
    <i name="e_0_energy">    -70.98865428 </i>
   </energy>
  </scstep>
  <scstep>
   <time name="diag">    0.08    0.08</time>
   <time name="diis">    0.97    0.97</time>
   <time name="orth">    0.01    0.01</time>
   <time name="total">    1.22    1.17</time>
   <energy>
    <i name="e_fr_energy">    -70.98926511 </i>
    <i name="e_wo_entrp">    -70.98926511 </i>
    <i name="e_0_energy">    -70.98926511 </i>
   </energy>
  </scstep>
  <scstep>
   <time name="diag">    0.08    0.08</time>
   <time name="diis">    1.03    1.03</time>
   <time name="orth">    0.01    0.01</time>
   <time name="total">    1.27    1.23</time>
   <energy>
    <i name="e_fr_energy">    -70.98902999 </i>
    <i name="e_wo_entrp">    -70.98902999 </i>
    <i name="e_0_energy">    -70.98902999 </i>
   </energy>
  </scstep>
  <scstep>
   <time name="diag">    0.08    0.08</time>
   <time name="diis">    0.97    0.98</time>
   <time name="orth">    0.01    0.01</time>
   <time name="total">    1.22    1.17</time>
   <energy>
    <i name="e_fr_energy">    -70.98898426 </i>
    <i name="e_wo_entrp">    -70.98898426 </i>
    <i name="e_0_energy">    -70.98898426 </i>
   </energy>
  </scstep>
  <scstep>
   <time name="diag">    0.08    0.08</time>
   <time name="diis">    1.06    1.07</time>
   <time name="orth">    0.01    0.01</time>
   <time name="total">    1.31    1.26</time>
   <energy>
    <i name="e_fr_energy">    -70.98898138 </i>
    <i name="e_wo_entrp">    -70.98898138 </i>
    <i name="e_0_energy">    -70.98898138 </i>
   </energy>
  </scstep>
  <scstep>
   <time name="diag">    0.08    0.08</time>
   <time name="diis">    0.97    0.98</time>
   <time name="orth">    0.01    0.01</time>
   <time name="total">    1.22    1.17</time>
   <energy>
    <i name="e_fr_energy">    -70.98898042 </i>
    <i name="e_wo_entrp">    -70.98898042 </i>
    <i name="e_0_energy">    -70.98898042 </i>
   </energy>
  </scstep>
  <scstep>
   <time name="diag">    0.08    0.08</time>
   <time name="diis">    0.98    0.99</time>
   <time name="orth">    0.01    0.01</time>
   <time name="total">    1.23    1.18</time>
   <energy>
    <i name="e_fr_energy">    -70.98898071 </i>
    <i name="e_wo_entrp">    -70.98898071 </i>
    <i name="e_0_energy">    -70.98898071 </i>
   </energy>
  </scstep>
  <scstep>
   <time name="diag">    0.08    0.08</time>
   <time name="diis">    0.99    1.00</time>
   <time name="orth">    0.01    0.01</time>
   <time name="total">    1.24    1.19</time>
   <energy>
    <i name="e_fr_energy">    -70.98898096 </i>
    <i name="e_wo_entrp">    -70.98898096 </i>
    <i name="e_0_energy">    -70.98898096 </i>
   </energy>
  </scstep>
  <scstep>
   <time name="diag">    0.08    0.08</time>
   <time name="diis">    0.97    0.98</time>
   <time name="orth">    0.01    0.01</time>
   <time name="total">    1.22    1.17</time>
   <energy>
    <i name="e_fr_energy">    -70.98898089 </i>
    <i name="e_wo_entrp">    -70.98898089 </i>
    <i name="e_0_energy">    -70.98898089 </i>
   </energy>
  </scstep>
  <scstep>
   <time name="diag">    0.08    0.08</time>
   <time name="diis">    0.97    0.98</time>
   <time name="orth">    0.01    0.01</time>
   <time name="total">    1.22    1.17</time>
   <energy>
    <i name="e_fr_energy">    -70.98898093 </i>
    <i name="e_wo_entrp">    -70.98898093 </i>
    <i name="e_0_energy">    -70.98898093 </i>
   </energy>
  </scstep>
  <scstep>
   <time name="diag">    0.08    0.08</time>
   <time name="diis">    0.67    0.67</time>
   <time name="orth">    0.01    0.01</time>
   <time name="total">    0.92    0.87</time>
   <energy>
    <i name="e_fr_energy">    -70.98898090 </i>
    <i name="e_wo_entrp">    -70.98898090 </i>
    <i name="e_0_energy">    -70.98898090 </i>
   </energy>
  </scstep>
  <scstep>
   <time name="diag">    0.08    0.08</time>
   <time name="diis">    0.65    0.65</time>
   <time name="orth">    0.01    0.01</time>
   <time name="total">    0.77    0.75</time>
   <energy>
    <i name="alphaZ">     71.30271804 </i>
    <i name="ewald">  -1930.19230385 </i>
    <i name="hartreedc">  -1040.55860010 </i>
    <i name="XCdc">    150.68549480 </i>
    <i name="pawpsdc">   8045.57490877 </i>
    <i name="pawaedc">  -8005.95272727 </i>
    <i name="eentropy">     -0.00000000 </i>
    <i name="bandstr">   -265.18584900 </i>
    <i name="atom">   2903.33737771 </i>
    <i name="e_fr_energy">    -70.98898090 </i>
    <i name="e_wo_entrp">    -70.98898090 </i>
    <i name="e_0_energy">    -70.98898090 </i>
   </energy>
  </scstep>
  <structure>
   <crystal>
    <varray name="basis" >
     <v>       4.87342988       0.00000000       0.00000000 </v>
     <v>      -2.43671494       4.22051408       0.00000000 </v>
     <v>       0.00000000       0.00000000       5.37418982 </v>
    </varray>
    <i name="volume">    110.53837516 </i>
    <varray name="rec_basis" >
     <v>       0.20519429       0.11846898      -0.00000000 </v>
     <v>       0.00000000       0.23693796       0.00000000 </v>
     <v>       0.00000000      -0.00000000       0.18607456 </v>
    </varray>
   </crystal>
   <varray name="positions" >
    <v>       0.46468182       0.00000000       0.66666667 </v>
    <v>       0.99995912       0.46466308       0.33342349 </v>
    <v>       0.53529604       0.53533692       0.99990985 </v>
    <v>       0.13531969       0.72378415       0.55406342 </v>
    <v>       0.27602419       0.41149610       0.22085176 </v>
    <v>       0.58851556       0.86432799       0.88765113 </v>
    <v>       0.41153554       0.27621585       0.77926991 </v>
    <v>       0.86452809       0.58850390       0.11248157 </v>
    <v>       0.72418757       0.13567201       0.44568220 </v>
   </varray>
  </structure>
  <varray name="forces" >
   <v>       0.01894778      -0.00000000      -0.00000000 </v>
   <v>       0.01222348       0.02755245      -0.06824935 </v>
   <v>       0.01222348      -0.02755245       0.06824935 </v>
   <v>      -0.24844191       0.06600179       0.20740739 </v>
   <v>       0.13417352      -0.23464316       0.15477844 </v>
   <v>       0.09257103       0.30124590       0.09813116 </v>
   <v>      -0.24844191      -0.06600179      -0.20740739 </v>
   <v>       0.13417352       0.23464316      -0.15477844 </v>
   <v>       0.09257103      -0.30124590      -0.09813116 </v>
  </varray>
  <varray name="stress" >
   <v>      70.43478221       0.00000000       0.00000000 </v>
   <v>       0.00000000      73.51354739       0.35375555 </v>
   <v>       0.00000000       0.35375607      73.62321431 </v>
  </varray>
  <energy>
   <i name="e_fr_energy">    -70.98898090 </i>
   <i name="e_wo_entrp">    -70.98898090 </i>
   <i name="e_0_energy">    -70.98898090 </i>
  </energy>
  <scstep>
   <time name="total">   12.20    2.58</time>
   <energy>
    <i name="e_fr_energy">   -182.50116502 </i>
    <i name="e_wo_entrp">   -182.50116502 </i>
    <i name="e_0_energy">   -182.50116502 </i>
   </energy>
  </scstep>
  <scstep>
   <time name="total">   11.75    2.25</time>
   <energy>
    <i name="e_fr_energy">   -172.60576738 </i>
    <i name="e_wo_entrp">   -172.60576738 </i>
    <i name="e_0_energy">   -172.60576738 </i>
   </energy>
  </scstep>
  <scstep>
   <time name="total">   11.83    2.27</time>
   <energy>
    <i name="e_fr_energy">   -172.75358233 </i>
    <i name="e_wo_entrp">   -172.75358233 </i>
    <i name="e_0_energy">   -172.75358233 </i>
   </energy>
  </scstep>
  <scstep>
   <time name="total">    0.92    0.92</time>
   <energy>
    <i name="e_fr_energy">   -172.76110857 </i>
    <i name="e_wo_entrp">   -172.76110857 </i>
    <i name="e_0_energy">   -172.76110857 </i>
   </energy>
  </scstep>
  <scstep>
   <time name="total">    0.92    0.92</time>
   <energy>
    <i name="e_fr_energy">   -172.76127502 </i>
    <i name="e_wo_entrp">   -172.76127502 </i>
    <i name="e_0_energy">   -172.76127502 </i>
   </energy>
  </scstep>
  <scstep>
   <time name="total">    0.92    0.92</time>
   <energy>
    <i name="e_fr_energy">   -172.76130055 </i>
    <i name="e_wo_entrp">   -172.76130055 </i>
    <i name="e_0_energy">   -172.76130055 </i>
   </energy>
  </scstep>
  <scstep>
   <time name="total">    0.92    0.92</time>
   <energy>
    <i name="e_fr_energy">   -172.76129046 </i>
    <i name="e_wo_entrp">   -172.76129046 </i>
    <i name="e_0_energy">   -172.76129046 </i>
   </energy>
  </scstep>
  <scstep>
   <time name="total">    0.92    0.92</time>
   <energy>
    <i name="e_fr_energy">   -172.76128695 </i>
    <i name="e_wo_entrp">   -172.76128695 </i>
    <i name="e_0_energy">   -172.76128695 </i>
   </energy>
  </scstep>
  <scstep>
   <time name="total">    0.91    0.91</time>
   <energy>
    <i name="e_fr_energy">   -172.76128506 </i>
    <i name="e_wo_entrp">   -172.76128506 </i>
    <i name="e_0_energy">   -172.76128506 </i>
   </energy>
  </scstep>
  <scstep>
   <time name="total">    0.91    0.92</time>
   <energy>
    <i name="e_fr_energy">   -172.76128722 </i>
    <i name="e_wo_entrp">   -172.76128722 </i>
    <i name="e_0_energy">   -172.76128722 </i>
   </energy>
  </scstep>
  <scstep>
   <time name="total">   12.04    2.56</time>
   <energy>
    <i name="e_fr_energy">   -182.27728650 </i>
    <i name="e_wo_entrp">   -182.27728650 </i>
    <i name="e_0_energy">   -182.27728650 </i>
   </energy>
  </scstep>
  <scstep>
   <time name="total">   11.74    2.24</time>
   <energy>
    <i name="e_fr_energy">   -172.61090511 </i>
    <i name="e_wo_entrp">   -172.61090511 </i>
    <i name="e_0_energy">   -172.61090511 </i>
   </energy>
  </scstep>
  <scstep>
   <time name="total">   11.76    2.27</time>
   <energy>
    <i name="e_fr_energy">   -172.75602812 </i>
    <i name="e_wo_entrp">   -172.75602812 </i>
    <i name="e_0_energy">   -172.75602812 </i>
   </energy>
  </scstep>
  <scstep>
   <time name="total">    0.92    0.92</time>
   <energy>
    <i name="e_fr_energy">   -172.76328577 </i>
    <i name="e_wo_entrp">   -172.76328577 </i>
    <i name="e_0_energy">   -172.76328577 </i>
   </energy>
  </scstep>
  <scstep>
   <time name="total">    0.92    0.92</time>
   <energy>
    <i name="e_fr_energy">   -172.76346417 </i>
    <i name="e_wo_entrp">   -172.76346417 </i>
    <i name="e_0_energy">   -172.76346417 </i>
   </energy>
  </scstep>
  <scstep>
   <time name="total">    0.93    0.93</time>
   <energy>
    <i name="e_fr_energy">   -172.76347288 </i>
    <i name="e_wo_entrp">   -172.76347288 </i>
    <i name="e_0_energy">   -172.76347288 </i>
   </energy>
  </scstep>
  <scstep>
   <time name="total">    0.93    0.93</time>
   <energy>
    <i name="e_fr_energy">   -172.76347537 </i>
    <i name="e_wo_entrp">   -172.76347537 </i>
    <i name="e_0_energy">   -172.76347537 </i>
   </energy>
  </scstep>
  <scstep>
   <time name="total">    0.93    0.93</time>
   <energy>
    <i name="e_fr_energy">   -172.76347605 </i>
    <i name="e_wo_entrp">   -172.76347605 </i>
    <i name="e_0_energy">   -172.76347605 </i>
   </energy>
  </scstep>
  <scstep>
   <time name="total">    0.92    0.93</time>
   <energy>
    <i name="e_fr_energy">   -172.76347671 </i>
    <i name="e_wo_entrp">   -172.76347671 </i>
    <i name="e_0_energy">   -172.76347671 </i>
   </energy>
  </scstep>
  <scstep>
   <time name="total">    0.92    0.93</time>
   <energy>
    <i name="e_fr_energy">   -172.76347573 </i>
    <i name="e_wo_entrp">   -172.76347573 </i>
    <i name="e_0_energy">   -172.76347573 </i>
   </energy>
  </scstep>
  <scstep>
   <time name="total">   12.03    2.56</time>
   <energy>
    <i name="e_fr_energy">   -182.14161136 </i>
    <i name="e_wo_entrp">   -182.14161136 </i>
    <i name="e_0_energy">   -182.14161136 </i>
   </energy>
  </scstep>
  <scstep>
   <time name="total">   11.67    2.22</time>
   <energy>
    <i name="e_fr_energy">   -172.56595203 </i>
    <i name="e_wo_entrp">   -172.56595203 </i>
    <i name="e_0_energy">   -172.56595203 </i>
   </energy>
  </scstep>
  <scstep>
   <time name="total">   11.70    2.25</time>
   <energy>
    <i name="e_fr_energy">   -172.71744253 </i>
    <i name="e_wo_entrp">   -172.71744253 </i>
    <i name="e_0_energy">   -172.71744253 </i>
   </energy>
  </scstep>
  <scstep>
   <time name="total">    0.91    0.91</time>
   <energy>
    <i name="e_fr_energy">   -172.72464694 </i>
    <i name="e_wo_entrp">   -172.72464694 </i>
    <i name="e_0_energy">   -172.72464694 </i>
   </energy>
  </scstep>
  <scstep>
   <time name="total">    0.91    0.92</time>
   <energy>
    <i name="e_fr_energy">   -172.72475622 </i>
    <i name="e_wo_entrp">   -172.72475622 </i>
    <i name="e_0_energy">   -172.72475622 </i>
   </energy>
  </scstep>
  <scstep>
   <time name="total">    0.92    0.92</time>
   <energy>
    <i name="e_fr_energy">   -172.72476092 </i>
    <i name="e_wo_entrp">   -172.72476092 </i>
    <i name="e_0_energy">   -172.72476092 </i>
   </energy>
  </scstep>
  <scstep>
   <time name="total">    0.93    0.93</time>
   <energy>
    <i name="e_fr_energy">   -172.72476551 </i>
    <i name="e_wo_entrp">   -172.72476551 </i>
    <i name="e_0_energy">   -172.72476551 </i>
   </energy>
  </scstep>
  <scstep>
   <time name="total">    0.92    0.93</time>
   <energy>
    <i name="e_fr_energy">   -172.72476635 </i>
    <i name="e_wo_entrp">   -172.72476635 </i>
    <i name="e_0_energy">   -172.72476635 </i>
   </energy>
  </scstep>
  <scstep>
   <time name="total">    0.92    0.93</time>
   <energy>
    <i name="e_fr_energy">   -172.72476891 </i>
    <i name="e_wo_entrp">   -172.72476891 </i>
    <i name="e_0_energy">   -172.72476891 </i>
   </energy>
  </scstep>
  <scstep>
   <time name="total">    0.92    0.92</time>
   <energy>
    <i name="e_fr_energy">   -172.72476872 </i>
    <i name="e_wo_entrp">   -172.72476872 </i>
    <i name="e_0_energy">   -172.72476872 </i>
   </energy>
  </scstep>
  <scstep>
   <time name="total">    1.69    1.22</time>
   <energy>
    <i name="e_fr_energy">     -0.48329856 </i>
    <i name="e_wo_entrp">     -0.48329856 </i>
    <i name="e_0_energy">     -0.48329856 </i>
   </energy>
  </scstep>
  <scstep>
   <time name="total">    1.67    1.21</time>
   <energy>
    <i name="e_fr_energy">     -0.48549004 </i>
    <i name="e_wo_entrp">     -0.48549004 </i>
    <i name="e_0_energy">     -0.48549004 </i>
   </energy>
  </scstep>
  <scstep>
   <time name="total">    1.68    1.22</time>
   <energy>
    <i name="e_fr_energy">     -0.48567895 </i>
    <i name="e_wo_entrp">     -0.48567895 </i>
    <i name="e_0_energy">     -0.48567895 </i>
   </energy>
  </scstep>
  <scstep>
   <time name="total">    1.69    1.23</time>
   <energy>
    <i name="e_fr_energy">     -0.48568756 </i>
    <i name="e_wo_entrp">     -0.48568756 </i>
    <i name="e_0_energy">     -0.48568756 </i>
   </energy>
  </scstep>
  <scstep>
   <time name="total">    1.69    1.23</time>
   <energy>
    <i name="e_fr_energy">     -0.48568787 </i>
    <i name="e_wo_entrp">     -0.48568787 </i>
    <i name="e_0_energy">     -0.48568787 </i>
   </energy>
  </scstep>
  <scstep>
   <time name="total">    1.64    1.18</time>
   <energy>
    <i name="e_fr_energy">     -0.48568789 </i>
    <i name="e_wo_entrp">     -0.48568789 </i>
    <i name="e_0_energy">     -0.48568789 </i>
   </energy>
  </scstep>
  <scstep>
   <time name="total">    1.59    1.13</time>
   <energy>
    <i name="e_fr_energy">     -0.48568789 </i>
    <i name="e_wo_entrp">     -0.48568789 </i>
    <i name="e_0_energy">     -0.48568789 </i>
   </energy>
  </scstep>
  <scstep>
   <time name="total">    1.57    1.11</time>
   <energy>
    <i name="e_fr_energy">     -0.48568789 </i>
    <i name="e_wo_entrp">     -0.48568789 </i>
    <i name="e_0_energy">     -0.48568789 </i>
   </energy>
  </scstep>
  <scstep>
   <time name="total">    1.57    1.10</time>
   <energy>
    <i name="e_fr_energy">     -0.48568789 </i>
    <i name="e_wo_entrp">     -0.48568789 </i>
    <i name="e_0_energy">     -0.48568789 </i>
   </energy>
  </scstep>
  <scstep>
   <time name="total">    1.68    1.22</time>
   <energy>
    <i name="e_fr_energy">     -0.48309743 </i>
    <i name="e_wo_entrp">     -0.48309743 </i>
    <i name="e_0_energy">     -0.48309743 </i>
   </energy>
  </scstep>
  <scstep>
   <time name="total">    1.67    1.21</time>
   <energy>
    <i name="e_fr_energy">     -0.48525156 </i>
    <i name="e_wo_entrp">     -0.48525156 </i>
    <i name="e_0_energy">     -0.48525156 </i>
   </energy>
  </scstep>
  <scstep>
   <time name="total">    1.69    1.23</time>
   <energy>
    <i name="e_fr_energy">     -0.48543965 </i>
    <i name="e_wo_entrp">     -0.48543965 </i>
    <i name="e_0_energy">     -0.48543965 </i>
   </energy>
  </scstep>
  <scstep>
   <time name="total">    1.69    1.23</time>
   <energy>
    <i name="e_fr_energy">     -0.48544825 </i>
    <i name="e_wo_entrp">     -0.48544825 </i>
    <i name="e_0_energy">     -0.48544825 </i>
   </energy>
  </scstep>
  <scstep>
   <time name="total">    1.69    1.23</time>
   <energy>
    <i name="e_fr_energy">     -0.48544856 </i>
    <i name="e_wo_entrp">     -0.48544856 </i>
    <i name="e_0_energy">     -0.48544856 </i>
   </energy>
  </scstep>
  <scstep>
   <time name="total">    1.64    1.18</time>
   <energy>
    <i name="e_fr_energy">     -0.48544858 </i>
    <i name="e_wo_entrp">     -0.48544858 </i>
    <i name="e_0_energy">     -0.48544858 </i>
   </energy>
  </scstep>
  <scstep>
   <time name="total">    1.59    1.13</time>
   <energy>
    <i name="e_fr_energy">     -0.48544858 </i>
    <i name="e_wo_entrp">     -0.48544858 </i>
    <i name="e_0_energy">     -0.48544858 </i>
   </energy>
  </scstep>
  <scstep>
   <time name="total">    1.57    1.11</time>
   <energy>
    <i name="e_fr_energy">     -0.48544858 </i>
    <i name="e_wo_entrp">     -0.48544858 </i>
    <i name="e_0_energy">     -0.48544858 </i>
   </energy>
  </scstep>
  <scstep>
   <time name="total">    1.56    1.10</time>
   <energy>
    <i name="e_fr_energy">     -0.48544858 </i>
    <i name="e_wo_entrp">     -0.48544858 </i>
    <i name="e_0_energy">     -0.48544858 </i>
   </energy>
  </scstep>
  <scstep>
   <time name="total">    1.67    1.21</time>
   <energy>
    <i name="e_fr_energy">     -0.48760353 </i>
    <i name="e_wo_entrp">     -0.48760353 </i>
    <i name="e_0_energy">     -0.48760353 </i>
   </energy>
  </scstep>
  <scstep>
   <time name="total">    1.65    1.19</time>
   <energy>
    <i name="e_fr_energy">     -0.48965595 </i>
    <i name="e_wo_entrp">     -0.48965595 </i>
    <i name="e_0_energy">     -0.48965595 </i>
   </energy>
  </scstep>
  <scstep>
   <time name="total">    1.67    1.21</time>
   <energy>
    <i name="e_fr_energy">     -0.48984678 </i>
    <i name="e_wo_entrp">     -0.48984678 </i>
    <i name="e_0_energy">     -0.48984678 </i>
   </energy>
  </scstep>
  <scstep>
   <time name="total">    1.68    1.22</time>
   <energy>
    <i name="e_fr_energy">     -0.48985569 </i>
    <i name="e_wo_entrp">     -0.48985569 </i>
    <i name="e_0_energy">     -0.48985569 </i>
   </energy>
  </scstep>
  <scstep>
   <time name="total">    1.68    1.22</time>
   <energy>
    <i name="e_fr_energy">     -0.48985600 </i>
    <i name="e_wo_entrp">     -0.48985600 </i>
    <i name="e_0_energy">     -0.48985600 </i>
   </energy>
  </scstep>
  <scstep>
   <time name="total">    1.64    1.18</time>
   <energy>
    <i name="e_fr_energy">     -0.48985602 </i>
    <i name="e_wo_entrp">     -0.48985602 </i>
    <i name="e_0_energy">     -0.48985602 </i>
   </energy>
  </scstep>
  <scstep>
   <time name="total">    1.59    1.13</time>
   <energy>
    <i name="e_fr_energy">     -0.48985602 </i>
    <i name="e_wo_entrp">     -0.48985602 </i>
    <i name="e_0_energy">     -0.48985602 </i>
   </energy>
  </scstep>
  <scstep>
   <time name="total">    1.57    1.10</time>
   <energy>
    <i name="e_fr_energy">     -0.48985602 </i>
    <i name="e_wo_entrp">     -0.48985602 </i>
    <i name="e_0_energy">     -0.48985602 </i>
   </energy>
  </scstep>
  <scstep>
   <time name="total">    1.56    1.10</time>
   <energy>
    <i name="e_fr_energy">     -0.48985602 </i>
    <i name="e_wo_entrp">     -0.48985602 </i>
    <i name="e_0_energy">     -0.48985602 </i>
   </energy>
  </scstep>
  <varray name="dielectric_ipa" >
   <v>       2.59014901       0.00000000       0.00000000 </v>
   <v>       0.00000000       2.58936583      -0.00011194 </v>
   <v>       0.00000000      -0.00011446       2.60380657 </v>
  </varray>
  <kpoints>
   <generation param="Gamma">
    <v type="int" name="divisions">       4        4        4 </v>
    <v name="usershift">      0.00000000       0.00000000       0.00000000 </v>
    <v name="genvec1">      0.25000000       0.00000000       0.00000000 </v>
    <v name="genvec2">      0.00000000       0.25000000       0.00000000 </v>
    <v name="genvec3">      0.00000000       0.00000000       0.25000000 </v>
    <v name="shift">      0.00000000       0.00000000       0.00000000 </v>
   </generation>
   <varray name="kpointlist" >
    <v>       0.00000000       0.00000000       0.00000000 </v>
    <v>       0.25000000       0.00000000       0.00000000 </v>
    <v>       0.00000000       0.25000000       0.00000000 </v>
    <v>       0.50000000       0.00000000       0.00000000 </v>
    <v>       0.00000000       0.50000000       0.00000000 </v>
    <v>       0.25000000       0.25000000       0.00000000 </v>
    <v>       0.50000000       0.25000000       0.00000000 </v>
    <v>       0.00000000       0.00000000       0.25000000 </v>
    <v>       0.25000000       0.00000000       0.25000000 </v>
    <v>       0.00000000       0.25000000       0.25000000 </v>
    <v>      -0.25000000       0.00000000       0.25000000 </v>
    <v>       0.00000000      -0.25000000       0.25000000 </v>
    <v>       0.50000000       0.00000000       0.25000000 </v>
    <v>       0.00000000       0.50000000       0.25000000 </v>
    <v>       0.25000000       0.25000000       0.25000000 </v>
    <v>       0.50000000       0.25000000       0.25000000 </v>
    <v>      -0.25000000      -0.25000000       0.25000000 </v>
    <v>       0.00000000       0.00000000       0.50000000 </v>
    <v>       0.25000000       0.00000000       0.50000000 </v>
    <v>       0.00000000       0.25000000       0.50000000 </v>
    <v>       0.50000000       0.00000000       0.50000000 </v>
    <v>       0.00000000       0.50000000       0.50000000 </v>
    <v>       0.25000000       0.25000000       0.50000000 </v>
    <v>       0.50000000       0.25000000       0.50000000 </v>
   </varray>
   <varray name="weights" >
    <v>       0.01562500 </v>
    <v>       0.06250000 </v>
    <v>       0.03125000 </v>
    <v>       0.03125000 </v>
    <v>       0.01562500 </v>
    <v>       0.06250000 </v>
    <v>       0.03125000 </v>
    <v>       0.03125000 </v>
    <v>       0.06250000 </v>
    <v>       0.03125000 </v>
    <v>       0.06250000 </v>
    <v>       0.03125000 </v>
    <v>       0.06250000 </v>
    <v>       0.03125000 </v>
    <v>       0.06250000 </v>
    <v>       0.06250000 </v>
    <v>       0.06250000 </v>
    <v>       0.01562500 </v>
    <v>       0.06250000 </v>
    <v>       0.03125000 </v>
    <v>       0.03125000 </v>
    <v>       0.01562500 </v>
    <v>       0.06250000 </v>
    <v>       0.03125000 </v>
   </varray>
  </kpoints>
  <scstep>
   <time name="total">    1.68    1.21</time>
   <energy>
    <i name="e_fr_energy">     -0.48329856 </i>
    <i name="e_wo_entrp">     -0.48329856 </i>
    <i name="e_0_energy">     -0.48329856 </i>
   </energy>
  </scstep>
  <scstep>
   <time name="total">    1.73    1.26</time>
   <energy>
    <i name="e_fr_energy">     -0.48549004 </i>
    <i name="e_wo_entrp">     -0.48549004 </i>
    <i name="e_0_energy">     -0.48549004 </i>
   </energy>
  </scstep>
  <scstep>
   <time name="total">    1.75    1.27</time>
   <energy>
    <i name="e_fr_energy">     -0.46484454 </i>
    <i name="e_wo_entrp">     -0.46484454 </i>
    <i name="e_0_energy">     -0.46484454 </i>
   </energy>
  </scstep>
  <scstep>
   <time name="total">    1.75    1.27</time>
   <energy>
    <i name="e_fr_energy">     -0.47606264 </i>
    <i name="e_wo_entrp">     -0.47606264 </i>
    <i name="e_0_energy">     -0.47606264 </i>
   </energy>
  </scstep>
  <scstep>
   <time name="total">    1.74    1.26</time>
   <energy>
    <i name="e_fr_energy">     -0.49386444 </i>
    <i name="e_wo_entrp">     -0.49386444 </i>
    <i name="e_0_energy">     -0.49386444 </i>
   </energy>
  </scstep>
  <scstep>
   <time name="total">    1.73    1.25</time>
   <energy>
    <i name="e_fr_energy">     -0.49677448 </i>
    <i name="e_wo_entrp">     -0.49677448 </i>
    <i name="e_0_energy">     -0.49677448 </i>
   </energy>
  </scstep>
  <scstep>
   <time name="total">    1.76    1.28</time>
   <energy>
    <i name="e_fr_energy">     -0.49702327 </i>
    <i name="e_wo_entrp">     -0.49702327 </i>
    <i name="e_0_energy">     -0.49702327 </i>
   </energy>
  </scstep>
  <scstep>
   <time name="total">    1.75    1.27</time>
   <energy>
    <i name="e_fr_energy">     -0.49725445 </i>
    <i name="e_wo_entrp">     -0.49725445 </i>
    <i name="e_0_energy">     -0.49725445 </i>
   </energy>
  </scstep>
  <scstep>
   <time name="total">    1.75    1.27</time>
   <energy>
    <i name="e_fr_energy">     -0.49731343 </i>
    <i name="e_wo_entrp">     -0.49731343 </i>
    <i name="e_0_energy">     -0.49731343 </i>
   </energy>
  </scstep>
  <scstep>
   <time name="total">    1.75    1.27</time>
   <energy>
    <i name="e_fr_energy">     -0.49731000 </i>
    <i name="e_wo_entrp">     -0.49731000 </i>
    <i name="e_0_energy">     -0.49731000 </i>
   </energy>
  </scstep>
  <scstep>
   <time name="total">    1.75    1.27</time>
   <energy>
    <i name="e_fr_energy">     -0.49731082 </i>
    <i name="e_wo_entrp">     -0.49731082 </i>
    <i name="e_0_energy">     -0.49731082 </i>
   </energy>
  </scstep>
  <scstep>
   <time name="total">    1.69    1.21</time>
   <energy>
    <i name="e_fr_energy">     -0.49731087 </i>
    <i name="e_wo_entrp">     -0.49731087 </i>
    <i name="e_0_energy">     -0.49731087 </i>
   </energy>
  </scstep>
  <scstep>
   <time name="total">    1.68    1.20</time>
   <energy>
    <i name="e_fr_energy">     -0.49731090 </i>
    <i name="e_wo_entrp">     -0.49731090 </i>
    <i name="e_0_energy">     -0.49731090 </i>
   </energy>
  </scstep>
  <scstep>
   <time name="total">    1.71    1.23</time>
   <energy>
    <i name="e_fr_energy">     -0.49731090 </i>
    <i name="e_wo_entrp">     -0.49731090 </i>
    <i name="e_0_energy">     -0.49731090 </i>
   </energy>
  </scstep>
  <kpoints>
   <generation param="Gamma">
    <v type="int" name="divisions">       4        4        4 </v>
    <v name="usershift">      0.00000000       0.00000000       0.00000000 </v>
    <v name="genvec1">      0.25000000       0.00000000       0.00000000 </v>
    <v name="genvec2">      0.00000000       0.25000000       0.00000000 </v>
    <v name="genvec3">      0.00000000       0.00000000       0.25000000 </v>
    <v name="shift">      0.00000000       0.00000000       0.00000000 </v>
   </generation>
   <varray name="kpointlist" >
    <v>       0.00000000       0.00000000       0.00000000 </v>
    <v>       0.25000000       0.00000000       0.00000000 </v>
    <v>       0.00000000       0.25000000       0.00000000 </v>
    <v>      -0.25000000       0.25000000       0.00000000 </v>
    <v>       0.50000000       0.00000000       0.00000000 </v>
    <v>       0.00000000       0.50000000       0.00000000 </v>
    <v>       0.50000000       0.50000000       0.00000000 </v>
    <v>       0.25000000       0.25000000       0.00000000 </v>
    <v>      -0.25000000       0.50000000       0.00000000 </v>
    <v>       0.50000000       0.25000000       0.00000000 </v>
    <v>       0.00000000       0.00000000       0.25000000 </v>
    <v>       0.25000000       0.00000000       0.25000000 </v>
    <v>       0.00000000       0.25000000       0.25000000 </v>
    <v>      -0.25000000       0.25000000       0.25000000 </v>
    <v>      -0.25000000       0.00000000       0.25000000 </v>
    <v>       0.00000000      -0.25000000       0.25000000 </v>
    <v>       0.25000000      -0.25000000       0.25000000 </v>
    <v>       0.50000000       0.00000000       0.25000000 </v>
    <v>       0.00000000       0.50000000       0.25000000 </v>
    <v>       0.50000000       0.50000000       0.25000000 </v>
    <v>       0.25000000       0.25000000       0.25000000 </v>
    <v>      -0.25000000       0.50000000       0.25000000 </v>
    <v>       0.50000000       0.25000000       0.25000000 </v>
    <v>      -0.25000000      -0.25000000       0.25000000 </v>
    <v>       0.25000000       0.50000000       0.25000000 </v>
    <v>       0.50000000      -0.25000000       0.25000000 </v>
    <v>       0.00000000       0.00000000       0.50000000 </v>
    <v>       0.25000000       0.00000000       0.50000000 </v>
    <v>       0.00000000       0.25000000       0.50000000 </v>
    <v>      -0.25000000       0.25000000       0.50000000 </v>
    <v>       0.50000000       0.00000000       0.50000000 </v>
    <v>       0.00000000       0.50000000       0.50000000 </v>
    <v>       0.50000000       0.50000000       0.50000000 </v>
    <v>       0.25000000       0.25000000       0.50000000 </v>
    <v>      -0.25000000       0.50000000       0.50000000 </v>
    <v>       0.50000000       0.25000000       0.50000000 </v>
   </varray>
   <varray name="weights" >
    <v>       0.01562500 </v>
    <v>       0.03125000 </v>
    <v>       0.03125000 </v>
    <v>       0.03125000 </v>
    <v>       0.01562500 </v>
    <v>       0.01562500 </v>
    <v>       0.01562500 </v>
    <v>       0.03125000 </v>
    <v>       0.03125000 </v>
    <v>       0.03125000 </v>
    <v>       0.03125000 </v>
    <v>       0.03125000 </v>
    <v>       0.03125000 </v>
    <v>       0.03125000 </v>
    <v>       0.03125000 </v>
    <v>       0.03125000 </v>
    <v>       0.03125000 </v>
    <v>       0.03125000 </v>
    <v>       0.03125000 </v>
    <v>       0.03125000 </v>
    <v>       0.03125000 </v>
    <v>       0.03125000 </v>
    <v>       0.03125000 </v>
    <v>       0.03125000 </v>
    <v>       0.03125000 </v>
    <v>       0.03125000 </v>
    <v>       0.01562500 </v>
    <v>       0.03125000 </v>
    <v>       0.03125000 </v>
    <v>       0.03125000 </v>
    <v>       0.01562500 </v>
    <v>       0.01562500 </v>
    <v>       0.01562500 </v>
    <v>       0.03125000 </v>
    <v>       0.03125000 </v>
    <v>       0.03125000 </v>
   </varray>
  </kpoints>
  <scstep>
   <time name="total">    2.21    1.75</time>
   <energy>
    <i name="e_fr_energy">     -0.48309746 </i>
    <i name="e_wo_entrp">     -0.48309746 </i>
    <i name="e_0_energy">     -0.48309746 </i>
   </energy>
  </scstep>
  <scstep>
   <time name="total">    2.29    1.82</time>
   <energy>
    <i name="e_fr_energy">     -0.48525158 </i>
    <i name="e_wo_entrp">     -0.48525158 </i>
    <i name="e_0_energy">     -0.48525158 </i>
   </energy>
  </scstep>
  <scstep>
   <time name="total">    2.30    1.83</time>
   <energy>
    <i name="e_fr_energy">     -0.46517417 </i>
    <i name="e_wo_entrp">     -0.46517417 </i>
    <i name="e_0_energy">     -0.46517417 </i>
   </energy>
  </scstep>
  <scstep>
   <time name="total">    2.30    1.83</time>
   <energy>
    <i name="e_fr_energy">     -0.47594051 </i>
    <i name="e_wo_entrp">     -0.47594051 </i>
    <i name="e_0_energy">     -0.47594051 </i>
   </energy>
  </scstep>
  <scstep>
   <time name="total">    2.29    1.82</time>
   <energy>
    <i name="e_fr_energy">     -0.49365633 </i>
    <i name="e_wo_entrp">     -0.49365633 </i>
    <i name="e_0_energy">     -0.49365633 </i>
   </energy>
  </scstep>
  <scstep>
   <time name="total">    2.27    1.80</time>
   <energy>
    <i name="e_fr_energy">     -0.49656338 </i>
    <i name="e_wo_entrp">     -0.49656338 </i>
    <i name="e_0_energy">     -0.49656338 </i>
   </energy>
  </scstep>
  <scstep>
   <time name="total">    2.31    1.84</time>
   <energy>
    <i name="e_fr_energy">     -0.49681182 </i>
    <i name="e_wo_entrp">     -0.49681182 </i>
    <i name="e_0_energy">     -0.49681182 </i>
   </energy>
  </scstep>
  <scstep>
   <time name="total">    2.31    1.83</time>
   <energy>
    <i name="e_fr_energy">     -0.49704316 </i>
    <i name="e_wo_entrp">     -0.49704316 </i>
    <i name="e_0_energy">     -0.49704316 </i>
   </energy>
  </scstep>
  <scstep>
   <time name="total">    2.31    1.83</time>
   <energy>
    <i name="e_fr_energy">     -0.49710856 </i>
    <i name="e_wo_entrp">     -0.49710856 </i>
    <i name="e_0_energy">     -0.49710856 </i>
   </energy>
  </scstep>
  <scstep>
   <time name="total">    2.31    1.83</time>
   <energy>
    <i name="e_fr_energy">     -0.49710390 </i>
    <i name="e_wo_entrp">     -0.49710390 </i>
    <i name="e_0_energy">     -0.49710390 </i>
   </energy>
  </scstep>
  <scstep>
   <time name="total">    2.29    1.82</time>
   <energy>
    <i name="e_fr_energy">     -0.49710473 </i>
    <i name="e_wo_entrp">     -0.49710473 </i>
    <i name="e_0_energy">     -0.49710473 </i>
   </energy>
  </scstep>
  <scstep>
   <time name="total">    2.21    1.74</time>
   <energy>
    <i name="e_fr_energy">     -0.49710472 </i>
    <i name="e_wo_entrp">     -0.49710472 </i>
    <i name="e_0_energy">     -0.49710472 </i>
   </energy>
  </scstep>
  <scstep>
   <time name="total">    2.21    1.74</time>
   <energy>
    <i name="e_fr_energy">     -0.49710474 </i>
    <i name="e_wo_entrp">     -0.49710474 </i>
    <i name="e_0_energy">     -0.49710474 </i>
   </energy>
  </scstep>
  <scstep>
   <time name="total">    2.25    1.78</time>
   <energy>
    <i name="e_fr_energy">     -0.49710463 </i>
    <i name="e_wo_entrp">     -0.49710463 </i>
    <i name="e_0_energy">     -0.49710463 </i>
   </energy>
  </scstep>
  <kpoints>
   <generation param="Gamma">
    <v type="int" name="divisions">       4        4        4 </v>
    <v name="usershift">      0.00000000       0.00000000       0.00000000 </v>
    <v name="genvec1">      0.25000000       0.00000000       0.00000000 </v>
    <v name="genvec2">      0.00000000       0.25000000       0.00000000 </v>
    <v name="genvec3">      0.00000000       0.00000000       0.25000000 </v>
    <v name="shift">      0.00000000       0.00000000       0.00000000 </v>
   </generation>
   <varray name="kpointlist" >
    <v>       0.00000000       0.00000000       0.00000000 </v>
    <v>       0.25000000       0.00000000       0.00000000 </v>
    <v>       0.00000000       0.25000000       0.00000000 </v>
    <v>      -0.25000000       0.25000000       0.00000000 </v>
    <v>       0.50000000       0.00000000       0.00000000 </v>
    <v>       0.00000000       0.50000000       0.00000000 </v>
    <v>       0.50000000       0.50000000       0.00000000 </v>
    <v>       0.25000000       0.25000000       0.00000000 </v>
    <v>      -0.25000000       0.50000000       0.00000000 </v>
    <v>       0.50000000       0.25000000       0.00000000 </v>
    <v>       0.00000000       0.00000000       0.25000000 </v>
    <v>       0.25000000       0.00000000       0.25000000 </v>
    <v>       0.00000000       0.25000000       0.25000000 </v>
    <v>      -0.25000000       0.25000000       0.25000000 </v>
    <v>      -0.25000000       0.00000000       0.25000000 </v>
    <v>       0.00000000      -0.25000000       0.25000000 </v>
    <v>       0.25000000      -0.25000000       0.25000000 </v>
    <v>       0.50000000       0.00000000       0.25000000 </v>
    <v>       0.00000000       0.50000000       0.25000000 </v>
    <v>       0.50000000       0.50000000       0.25000000 </v>
    <v>       0.25000000       0.25000000       0.25000000 </v>
    <v>      -0.25000000       0.50000000       0.25000000 </v>
    <v>       0.50000000       0.25000000       0.25000000 </v>
    <v>      -0.25000000      -0.25000000       0.25000000 </v>
    <v>       0.25000000       0.50000000       0.25000000 </v>
    <v>       0.50000000      -0.25000000       0.25000000 </v>
    <v>       0.00000000       0.00000000       0.50000000 </v>
    <v>       0.25000000       0.00000000       0.50000000 </v>
    <v>       0.00000000       0.25000000       0.50000000 </v>
    <v>      -0.25000000       0.25000000       0.50000000 </v>
    <v>       0.50000000       0.00000000       0.50000000 </v>
    <v>       0.00000000       0.50000000       0.50000000 </v>
    <v>       0.50000000       0.50000000       0.50000000 </v>
    <v>       0.25000000       0.25000000       0.50000000 </v>
    <v>      -0.25000000       0.50000000       0.50000000 </v>
    <v>       0.50000000       0.25000000       0.50000000 </v>
   </varray>
   <varray name="weights" >
    <v>       0.01562500 </v>
    <v>       0.03125000 </v>
    <v>       0.03125000 </v>
    <v>       0.03125000 </v>
    <v>       0.01562500 </v>
    <v>       0.01562500 </v>
    <v>       0.01562500 </v>
    <v>       0.03125000 </v>
    <v>       0.03125000 </v>
    <v>       0.03125000 </v>
    <v>       0.03125000 </v>
    <v>       0.03125000 </v>
    <v>       0.03125000 </v>
    <v>       0.03125000 </v>
    <v>       0.03125000 </v>
    <v>       0.03125000 </v>
    <v>       0.03125000 </v>
    <v>       0.03125000 </v>
    <v>       0.03125000 </v>
    <v>       0.03125000 </v>
    <v>       0.03125000 </v>
    <v>       0.03125000 </v>
    <v>       0.03125000 </v>
    <v>       0.03125000 </v>
    <v>       0.03125000 </v>
    <v>       0.03125000 </v>
    <v>       0.01562500 </v>
    <v>       0.03125000 </v>
    <v>       0.03125000 </v>
    <v>       0.03125000 </v>
    <v>       0.01562500 </v>
    <v>       0.01562500 </v>
    <v>       0.01562500 </v>
    <v>       0.03125000 </v>
    <v>       0.03125000 </v>
    <v>       0.03125000 </v>
   </varray>
  </kpoints>
  <scstep>
   <time name="total">    2.18    1.73</time>
   <energy>
    <i name="e_fr_energy">     -0.48760354 </i>
    <i name="e_wo_entrp">     -0.48760354 </i>
    <i name="e_0_energy">     -0.48760354 </i>
   </energy>
  </scstep>
  <scstep>
   <time name="total">    2.24    1.77</time>
   <energy>
    <i name="e_fr_energy">     -0.48965591 </i>
    <i name="e_wo_entrp">     -0.48965591 </i>
    <i name="e_0_energy">     -0.48965591 </i>
   </energy>
  </scstep>
  <scstep>
   <time name="total">    2.26    1.79</time>
   <energy>
    <i name="e_fr_energy">     -0.47436906 </i>
    <i name="e_wo_entrp">     -0.47436906 </i>
    <i name="e_0_energy">     -0.47436906 </i>
   </energy>
  </scstep>
  <scstep>
   <time name="total">    2.28    1.81</time>
   <energy>
    <i name="e_fr_energy">     -0.48761605 </i>
    <i name="e_wo_entrp">     -0.48761605 </i>
    <i name="e_0_energy">     -0.48761605 </i>
   </energy>
  </scstep>
  <scstep>
   <time name="total">    2.27    1.80</time>
   <energy>
    <i name="e_fr_energy">     -0.50386339 </i>
    <i name="e_wo_entrp">     -0.50386339 </i>
    <i name="e_0_energy">     -0.50386339 </i>
   </energy>
  </scstep>
  <scstep>
   <time name="total">    2.23    1.76</time>
   <energy>
    <i name="e_fr_energy">     -0.50670017 </i>
    <i name="e_wo_entrp">     -0.50670017 </i>
    <i name="e_0_energy">     -0.50670017 </i>
   </energy>
  </scstep>
  <scstep>
   <time name="total">    2.28    1.82</time>
   <energy>
    <i name="e_fr_energy">     -0.50694584 </i>
    <i name="e_wo_entrp">     -0.50694584 </i>
    <i name="e_0_energy">     -0.50694584 </i>
   </energy>
  </scstep>
  <scstep>
   <time name="total">    2.28    1.81</time>
   <energy>
    <i name="e_fr_energy">     -0.50721151 </i>
    <i name="e_wo_entrp">     -0.50721151 </i>
    <i name="e_0_energy">     -0.50721151 </i>
   </energy>
  </scstep>
  <scstep>
   <time name="total">    2.28    1.82</time>
   <energy>
    <i name="e_fr_energy">     -0.50723380 </i>
    <i name="e_wo_entrp">     -0.50723380 </i>
    <i name="e_0_energy">     -0.50723380 </i>
   </energy>
  </scstep>
  <scstep>
   <time name="total">    2.30    1.83</time>
   <energy>
    <i name="e_fr_energy">     -0.50723516 </i>
    <i name="e_wo_entrp">     -0.50723516 </i>
    <i name="e_0_energy">     -0.50723516 </i>
   </energy>
  </scstep>
  <scstep>
   <time name="total">    2.30    1.83</time>
   <energy>
    <i name="e_fr_energy">     -0.50723431 </i>
    <i name="e_wo_entrp">     -0.50723431 </i>
    <i name="e_0_energy">     -0.50723431 </i>
   </energy>
  </scstep>
  <scstep>
   <time name="total">    2.20    1.73</time>
   <energy>
    <i name="e_fr_energy">     -0.50723451 </i>
    <i name="e_wo_entrp">     -0.50723451 </i>
    <i name="e_0_energy">     -0.50723451 </i>
   </energy>
  </scstep>
  <scstep>
   <time name="total">    2.25    1.78</time>
   <energy>
    <i name="e_fr_energy">     -0.50723445 </i>
    <i name="e_wo_entrp">     -0.50723445 </i>
    <i name="e_0_energy">     -0.50723445 </i>
   </energy>
  </scstep>
  <scstep>
   <time name="total">    2.23    1.75</time>
   <energy>
    <i name="e_fr_energy">     -0.50723447 </i>
    <i name="e_wo_entrp">     -0.50723447 </i>
    <i name="e_0_energy">     -0.50723447 </i>
   </energy>
  </scstep>
  <kpoints>
   <generation param="Gamma">
    <v type="int" name="divisions">       4        4        4 </v>
    <v name="usershift">      0.00000000       0.00000000       0.00000000 </v>
    <v name="genvec1">      0.25000000       0.00000000       0.00000000 </v>
    <v name="genvec2">      0.00000000       0.25000000       0.00000000 </v>
    <v name="genvec3">      0.00000000       0.00000000       0.25000000 </v>
    <v name="shift">      0.00000000       0.00000000       0.00000000 </v>
   </generation>
   <varray name="kpointlist" >
    <v>       0.00000000       0.00000000       0.00000000 </v>
    <v>       0.25000000       0.00000000       0.00000000 </v>
    <v>       0.00000000       0.25000000       0.00000000 </v>
    <v>       0.50000000       0.00000000       0.00000000 </v>
    <v>       0.00000000       0.50000000       0.00000000 </v>
    <v>       0.25000000       0.25000000       0.00000000 </v>
    <v>       0.50000000       0.25000000       0.00000000 </v>
    <v>       0.00000000       0.00000000       0.25000000 </v>
    <v>       0.25000000       0.00000000       0.25000000 </v>
    <v>       0.00000000       0.25000000       0.25000000 </v>
    <v>      -0.25000000       0.00000000       0.25000000 </v>
    <v>       0.00000000      -0.25000000       0.25000000 </v>
    <v>       0.50000000       0.00000000       0.25000000 </v>
    <v>       0.00000000       0.50000000       0.25000000 </v>
    <v>       0.25000000       0.25000000       0.25000000 </v>
    <v>       0.50000000       0.25000000       0.25000000 </v>
    <v>      -0.25000000      -0.25000000       0.25000000 </v>
    <v>       0.00000000       0.00000000       0.50000000 </v>
    <v>       0.25000000       0.00000000       0.50000000 </v>
    <v>       0.00000000       0.25000000       0.50000000 </v>
    <v>       0.50000000       0.00000000       0.50000000 </v>
    <v>       0.00000000       0.50000000       0.50000000 </v>
    <v>       0.25000000       0.25000000       0.50000000 </v>
    <v>       0.50000000       0.25000000       0.50000000 </v>
   </varray>
   <varray name="weights" >
    <v>       0.01562500 </v>
    <v>       0.06250000 </v>
    <v>       0.03125000 </v>
    <v>       0.03125000 </v>
    <v>       0.01562500 </v>
    <v>       0.06250000 </v>
    <v>       0.03125000 </v>
    <v>       0.03125000 </v>
    <v>       0.06250000 </v>
    <v>       0.03125000 </v>
    <v>       0.06250000 </v>
    <v>       0.03125000 </v>
    <v>       0.06250000 </v>
    <v>       0.03125000 </v>
    <v>       0.06250000 </v>
    <v>       0.06250000 </v>
    <v>       0.06250000 </v>
    <v>       0.01562500 </v>
    <v>       0.06250000 </v>
    <v>       0.03125000 </v>
    <v>       0.03125000 </v>
    <v>       0.01562500 </v>
    <v>       0.06250000 </v>
    <v>       0.03125000 </v>
   </varray>
  </kpoints>
  <varray name="dielectric_dft" >
   <v>       2.48107727       0.00000000      -0.00000000 </v>
   <v>       0.00000000       2.48056030      -0.00013682 </v>
   <v>       0.00000000      -0.00014066       2.51334485 </v>
  </varray>
  <varray name="epsilon" >
   <v>       2.48107727       0.00000000      -0.00000000 </v>
   <v>       0.00000000       2.48056030      -0.00013682 </v>
   <v>       0.00000000      -0.00014066       2.51334485 </v>
  </varray>
  <kpoints>
   <generation param="Gamma">
    <v type="int" name="divisions">       4        4        4 </v>
    <v name="usershift">      0.00000000       0.00000000       0.00000000 </v>
    <v name="genvec1">      0.25000000       0.00000000       0.00000000 </v>
    <v name="genvec2">      0.00000000       0.25000000       0.00000000 </v>
    <v name="genvec3">      0.00000000       0.00000000       0.25000000 </v>
    <v name="shift">      0.00000000       0.00000000       0.00000000 </v>
   </generation>
   <varray name="kpointlist" >
    <v>       0.00000000       0.00000000       0.00000000 </v>
    <v>       0.25000000       0.00000000       0.00000000 </v>
    <v>       0.00000000       0.25000000       0.00000000 </v>
    <v>       0.50000000       0.00000000       0.00000000 </v>
    <v>       0.00000000       0.50000000       0.00000000 </v>
    <v>       0.25000000       0.25000000       0.00000000 </v>
    <v>       0.50000000       0.25000000       0.00000000 </v>
    <v>       0.00000000       0.00000000       0.25000000 </v>
    <v>       0.25000000       0.00000000       0.25000000 </v>
    <v>       0.00000000       0.25000000       0.25000000 </v>
    <v>      -0.25000000       0.00000000       0.25000000 </v>
    <v>       0.00000000      -0.25000000       0.25000000 </v>
    <v>       0.50000000       0.00000000       0.25000000 </v>
    <v>       0.00000000       0.50000000       0.25000000 </v>
    <v>       0.25000000       0.25000000       0.25000000 </v>
    <v>       0.50000000       0.25000000       0.25000000 </v>
    <v>      -0.25000000      -0.25000000       0.25000000 </v>
    <v>       0.00000000       0.00000000       0.50000000 </v>
    <v>       0.25000000       0.00000000       0.50000000 </v>
    <v>       0.00000000       0.25000000       0.50000000 </v>
    <v>       0.50000000       0.00000000       0.50000000 </v>
    <v>       0.00000000       0.50000000       0.50000000 </v>
    <v>       0.25000000       0.25000000       0.50000000 </v>
    <v>       0.50000000       0.25000000       0.50000000 </v>
   </varray>
   <varray name="weights" >
    <v>       0.01562500 </v>
    <v>       0.06250000 </v>
    <v>       0.03125000 </v>
    <v>       0.03125000 </v>
    <v>       0.01562500 </v>
    <v>       0.06250000 </v>
    <v>       0.03125000 </v>
    <v>       0.03125000 </v>
    <v>       0.06250000 </v>
    <v>       0.03125000 </v>
    <v>       0.06250000 </v>
    <v>       0.03125000 </v>
    <v>       0.06250000 </v>
    <v>       0.03125000 </v>
    <v>       0.06250000 </v>
    <v>       0.06250000 </v>
    <v>       0.06250000 </v>
    <v>       0.01562500 </v>
    <v>       0.06250000 </v>
    <v>       0.03125000 </v>
    <v>       0.03125000 </v>
    <v>       0.01562500 </v>
    <v>       0.06250000 </v>
    <v>       0.03125000 </v>
   </varray>
  </kpoints>
  <array name="born_charges" >
   <dimension dim="1">ion</dimension>
   <set>
    <v>       2.98078587       0.00000000      -0.00000000 </v>
    <v>       0.00000000       3.62153692      -0.32006063 </v>
    <v>       0.00000000       0.27693507       3.42553813 </v>
   </set>
   <set>
    <v>       3.45998207       0.27791691       0.27866223 </v>
    <v>       0.27606386       3.14041336       0.16130575 </v>
    <v>      -0.24094009      -0.13989516       3.42519627 </v>
   </set>
   <set>
    <v>       3.45998207      -0.27791691      -0.27866223 </v>
    <v>      -0.27606386       3.14041336       0.16130575 </v>
    <v>       0.24094009      -0.13989516       3.42519627 </v>
   </set>
   <set>
    <v>      -1.31080254      -0.49345697      -0.31064888 </v>
    <v>      -0.43484787      -1.98895535      -0.67964558 </v>
    <v>      -0.24278014      -0.72149933      -1.71306626 </v>
   </set>
   <set>
    <v>      -2.22243767      -0.08976370       0.74309793 </v>
    <v>      -0.03269346      -1.07833117       0.07102826 </v>
    <v>       0.74617153       0.15015797      -1.71304074 </v>
   </set>
   <set>
    <v>      -1.41713480       0.49854464      -0.43240550 </v>
    <v>       0.55436376      -1.88389530       0.60734188 </v>
    <v>      -0.50261634       0.57276899      -1.71185833 </v>
   </set>
   <set>
    <v>      -1.31080254       0.49345697       0.31064888 </v>
    <v>       0.43484787      -1.98895535      -0.67964558 </v>
    <v>       0.24278014      -0.72149933      -1.71306626 </v>
   </set>
   <set>
    <v>      -2.22243767       0.08976370      -0.74309793 </v>
    <v>       0.03269346      -1.07833117       0.07102826 </v>
    <v>      -0.74617153       0.15015797      -1.71304074 </v>
   </set>
   <set>
    <v>      -1.41713480      -0.49854464       0.43240550 </v>
    <v>      -0.55436376      -1.88389530       0.60734188 </v>
    <v>       0.50261634       0.57276899      -1.71185833 </v>
   </set>
  </array>
  <time name="totalsc">  306.80  180.01</time>
  <eigenvalues>
   <array>
    <dimension dim="1">band</dimension>
    <dimension dim="2">kpoint</dimension>
    <dimension dim="3">spin</dimension>
    <field>eigene</field>
    <field>occ</field>
    <set>
     <set comment="spin 1">
      <set comment="kpoint 1">
       <r>  -18.1720    1.0000 </r>
       <r>  -16.6275    1.0000 </r>
       <r>  -16.6126    1.0000 </r>
       <r>  -15.9548    1.0000 </r>
       <r>  -15.9473    1.0000 </r>
       <r>  -15.9342    1.0000 </r>
       <r>   -6.8851    1.0000 </r>
       <r>   -6.8728    1.0000 </r>
       <r>   -4.1465    1.0000 </r>
       <r>   -4.0641    1.0000 </r>
       <r>   -3.9150    1.0000 </r>
       <r>   -3.9072    1.0000 </r>
       <r>   -1.6896    1.0000 </r>
       <r>   -1.6817    1.0000 </r>
       <r>   -1.3748    1.0000 </r>
       <r>   -1.1507    1.0000 </r>
       <r>   -0.1566    1.0000 </r>
       <r>   -0.1543    1.0000 </r>
       <r>   -0.0980    1.0000 </r>
       <r>    0.2560    1.0000 </r>
       <r>    0.2666    1.0000 </r>
       <r>    0.4586    1.0000 </r>
       <r>    1.0007    1.0000 </r>
       <r>    1.0078    1.0000 </r>
       <r>    7.3235    0.0000 </r>
       <r>   10.6070    0.0000 </r>
       <r>   10.6099    0.0000 </r>
       <r>   11.2292    0.0000 </r>
       <r>   11.2440    0.0000 </r>
      </set>
      <set comment="kpoint 2">
       <r>  -17.9883    1.0000 </r>
       <r>  -16.8219    1.0000 </r>
       <r>  -16.5899    1.0000 </r>
       <r>  -16.0178    1.0000 </r>
       <r>  -15.9766    1.0000 </r>
       <r>  -15.9438    1.0000 </r>
       <r>   -6.9600    1.0000 </r>
       <r>   -6.5060    1.0000 </r>
       <r>   -4.2162    1.0000 </r>
       <r>   -4.1553    1.0000 </r>
       <r>   -4.0336    1.0000 </r>
       <r>   -3.6184    1.0000 </r>
       <r>   -1.8720    1.0000 </r>
       <r>   -1.5579    1.0000 </r>
       <r>   -1.3473    1.0000 </r>
       <r>   -0.8963    1.0000 </r>
       <r>   -0.6982    1.0000 </r>
       <r>   -0.2383    1.0000 </r>
       <r>   -0.1598    1.0000 </r>
       <r>    0.1813    1.0000 </r>
       <r>    0.2750    1.0000 </r>
       <r>    0.4204    1.0000 </r>
       <r>    1.0544    1.0000 </r>
       <r>    1.1404    1.0000 </r>
       <r>    8.2329    0.0000 </r>
       <r>   10.6713    0.0000 </r>
       <r>   10.7210    0.0000 </r>
       <r>   11.2084    0.0000 </r>
       <r>   11.4803    0.0000 </r>
      </set>
      <set comment="kpoint 3">
       <r>  -17.9874    1.0000 </r>
       <r>  -16.8157    1.0000 </r>
       <r>  -16.6012    1.0000 </r>
       <r>  -16.0221    1.0000 </r>
       <r>  -15.9752    1.0000 </r>
       <r>  -15.9366    1.0000 </r>
       <r>   -6.9509    1.0000 </r>
       <r>   -6.5155    1.0000 </r>
       <r>   -4.2208    1.0000 </r>
       <r>   -4.1519    1.0000 </r>
       <r>   -4.0305    1.0000 </r>
       <r>   -3.6197    1.0000 </r>
       <r>   -1.8747    1.0000 </r>
       <r>   -1.5543    1.0000 </r>
       <r>   -1.3486    1.0000 </r>
       <r>   -0.8982    1.0000 </r>
       <r>   -0.6952    1.0000 </r>
       <r>   -0.2409    1.0000 </r>
       <r>   -0.1603    1.0000 </r>
       <r>    0.1750    1.0000 </r>
       <r>    0.2807    1.0000 </r>
       <r>    0.4224    1.0000 </r>
       <r>    1.0518    1.0000 </r>
       <r>    1.1441    1.0000 </r>
       <r>    8.2330    0.0000 </r>
       <r>   10.6662    0.0000 </r>
       <r>   10.7179    0.0000 </r>
       <r>   11.2046    0.0000 </r>
       <r>   11.4875    0.0000 </r>
      </set>
      <set comment="kpoint 4">
       <r>  -17.6664    1.0000 </r>
       <r>  -17.1818    1.0000 </r>
       <r>  -16.5612    1.0000 </r>
       <r>  -16.0443    1.0000 </r>
       <r>  -15.9989    1.0000 </r>
       <r>  -15.9732    1.0000 </r>
       <r>   -7.0336    1.0000 </r>
       <r>   -6.0406    1.0000 </r>
       <r>   -4.5544    1.0000 </r>
       <r>   -4.0975    1.0000 </r>
       <r>   -4.0911    1.0000 </r>
       <r>   -3.2806    1.0000 </r>
       <r>   -1.8247    1.0000 </r>
       <r>   -1.6212    1.0000 </r>
       <r>   -1.4347    1.0000 </r>
       <r>   -1.0019    1.0000 </r>
       <r>   -0.7917    1.0000 </r>
       <r>   -0.4791    1.0000 </r>
       <r>   -0.2887    1.0000 </r>
       <r>    0.1976    1.0000 </r>
       <r>    0.2810    1.0000 </r>
       <r>    0.5588    1.0000 </r>
       <r>    1.0151    1.0000 </r>
       <r>    1.2400    1.0000 </r>
       <r>    9.6344    0.0000 </r>
       <r>   10.3740    0.0000 </r>
       <r>   10.9681    0.0000 </r>
       <r>   10.9917    0.0000 </r>
       <r>   11.9939    0.0000 </r>
      </set>
      <set comment="kpoint 5">
       <r>  -17.6623    1.0000 </r>
       <r>  -17.1826    1.0000 </r>
       <r>  -16.5724    1.0000 </r>
       <r>  -16.0468    1.0000 </r>
       <r>  -16.0042    1.0000 </r>
       <r>  -15.9577    1.0000 </r>
       <r>   -7.0246    1.0000 </r>
       <r>   -6.0507    1.0000 </r>
       <r>   -4.5597    1.0000 </r>
       <r>   -4.0933    1.0000 </r>
       <r>   -4.0853    1.0000 </r>
       <r>   -3.2842    1.0000 </r>
       <r>   -1.8223    1.0000 </r>
       <r>   -1.6257    1.0000 </r>
       <r>   -1.4352    1.0000 </r>
       <r>   -0.9997    1.0000 </r>
       <r>   -0.7939    1.0000 </r>
       <r>   -0.4804    1.0000 </r>
       <r>   -0.2860    1.0000 </r>
       <r>    0.1910    1.0000 </r>
       <r>    0.2835    1.0000 </r>
       <r>    0.5612    1.0000 </r>
       <r>    1.0149    1.0000 </r>
       <r>    1.2435    1.0000 </r>
       <r>    9.6365    0.0000 </r>
[...]
       <r>    1.1165    1.0000 </r>
       <r>   10.2248    0.0000 </r>
       <r>   10.7269    0.0000 </r>
       <r>   11.0198    0.0000 </r>
       <r>   11.2017    0.0000 </r>
       <r>   11.5405    0.0000 </r>
      </set>
      <set comment="kpoint 22">
       <r>  -17.5835    1.0000 </r>
       <r>  -17.1419    1.0000 </r>
       <r>  -16.7128    1.0000 </r>
       <r>  -16.0776    1.0000 </r>
       <r>  -15.9938    1.0000 </r>
       <r>  -15.9496    1.0000 </r>
       <r>   -6.8696    1.0000 </r>
       <r>   -5.9218    1.0000 </r>
       <r>   -5.0504    1.0000 </r>
       <r>   -3.9907    1.0000 </r>
       <r>   -3.7079    1.0000 </r>
       <r>   -3.6146    1.0000 </r>
       <r>   -1.9309    1.0000 </r>
       <r>   -1.9213    1.0000 </r>
       <r>   -1.1448    1.0000 </r>
       <r>   -0.8269    1.0000 </r>
       <r>   -0.7465    1.0000 </r>
       <r>   -0.2755    1.0000 </r>
       <r>    0.0179    1.0000 </r>
       <r>    0.1840    1.0000 </r>
       <r>    0.3931    1.0000 </r>
       <r>    0.4091    1.0000 </r>
       <r>    0.6999    1.0000 </r>
       <r>    1.1255    1.0000 </r>
       <r>   10.2318    0.0000 </r>
       <r>   10.7217    0.0000 </r>
       <r>   11.0042    0.0000 </r>
       <r>   11.1968    0.0000 </r>
       <r>   11.5353    0.0000 </r>
      </set>
      <set comment="kpoint 23">
       <r>  -17.5744    1.0000 </r>
       <r>  -17.1861    1.0000 </r>
       <r>  -16.6548    1.0000 </r>
       <r>  -16.0622    1.0000 </r>
       <r>  -15.9946    1.0000 </r>
       <r>  -15.9887    1.0000 </r>
       <r>   -6.8551    1.0000 </r>
       <r>   -5.8719    1.0000 </r>
       <r>   -5.1564    1.0000 </r>
       <r>   -3.8966    1.0000 </r>
       <r>   -3.7959    1.0000 </r>
       <r>   -3.6155    1.0000 </r>
       <r>   -1.9736    1.0000 </r>
       <r>   -1.7467    1.0000 </r>
       <r>   -1.2645    1.0000 </r>
       <r>   -0.9000    1.0000 </r>
       <r>   -0.6222    1.0000 </r>
       <r>   -0.4232    1.0000 </r>
       <r>    0.1485    1.0000 </r>
       <r>    0.2537    1.0000 </r>
       <r>    0.3278    1.0000 </r>
       <r>    0.5719    1.0000 </r>
       <r>    0.7170    1.0000 </r>
       <r>    0.9260    1.0000 </r>
       <r>   10.1789    0.0000 </r>
       <r>   10.6492    0.0000 </r>
       <r>   10.9608    0.0000 </r>
       <r>   11.3031    0.0000 </r>
       <r>   11.7231    0.0000 </r>
      </set>
      <set comment="kpoint 24">
       <r>  -17.5771    1.0000 </r>
       <r>  -17.1859    1.0000 </r>
       <r>  -16.6475    1.0000 </r>
       <r>  -16.0617    1.0000 </r>
       <r>  -15.9951    1.0000 </r>
       <r>  -15.9934    1.0000 </r>
       <r>   -6.8597    1.0000 </r>
       <r>   -5.8663    1.0000 </r>
       <r>   -5.1558    1.0000 </r>
       <r>   -3.9005    1.0000 </r>
       <r>   -3.7932    1.0000 </r>
       <r>   -3.6155    1.0000 </r>
       <r>   -1.9747    1.0000 </r>
       <r>   -1.7474    1.0000 </r>
       <r>   -1.2652    1.0000 </r>
       <r>   -0.9012    1.0000 </r>
       <r>   -0.6229    1.0000 </r>
       <r>   -0.4203    1.0000 </r>
       <r>    0.1508    1.0000 </r>
       <r>    0.2596    1.0000 </r>
       <r>    0.3297    1.0000 </r>
       <r>    0.5701    1.0000 </r>
       <r>    0.7154    1.0000 </r>
       <r>    0.9205    1.0000 </r>
       <r>   10.1729    0.0000 </r>
       <r>   10.6545    0.0000 </r>
       <r>   10.9681    0.0000 </r>
       <r>   11.3082    0.0000 </r>
       <r>   11.7206    0.0000 </r>
      </set>
     </set>
    </set>
   </array>
  </eigenvalues>
  <separator name="orbital magnetization" >
   <v name="MAGDIPOLOUT">      0.00000000      0.00000000      0.00000000</v>
  </separator>
  <dos>
   <i name="efermi">      1.79368330 </i>
   <total>
    <array>
     <dimension dim="1">gridpoints</dimension>
     <dimension dim="2">spin</dimension>
     <field>energy</field>
     <field>total</field>
     <field>integrated</field>
     <set>
      <set comment="spin 1">
       <r>   -19.6812     0.0000     0.0000 </r>
       <r>   -19.5705     0.0000     0.0000 </r>
       <r>   -19.4599     0.0000     0.0000 </r>
       <r>   -19.3492     0.0000     0.0000 </r>
       <r>   -19.2385     0.0000     0.0000 </r>
       <r>   -19.1278     0.0000     0.0000 </r>
       <r>   -19.0172     0.0000     0.0000 </r>
       <r>   -18.9065     0.0000     0.0000 </r>
       <r>   -18.7958     0.0000     0.0000 </r>
       <r>   -18.6851     0.0000     0.0000 </r>
       <r>   -18.5744     0.0000     0.0000 </r>
       <r>   -18.4638     0.0000     0.0000 </r>
       <r>   -18.3531     0.0015     0.0002 </r>
       <r>   -18.2424     0.0455     0.0052 </r>
       <r>   -18.1317     0.2561     0.0335 </r>
       <r>   -18.0211     0.9598     0.1398 </r>
       <r>   -17.9104     2.1814     0.3812 </r>
       <r>   -17.7997     2.2483     0.6300 </r>
       <r>   -17.6890     3.1636     0.9802 </r>
       <r>   -17.5783     6.7076     1.7226 </r>
       <r>   -17.4677     3.7301     2.1354 </r>
       <r>   -17.3570     0.7639     2.2199 </r>
       <r>   -17.2463     1.6827     2.4062 </r>
       <r>   -17.1356     7.3493     3.2196 </r>
       <r>   -17.0250     4.6703     3.7365 </r>
       <r>   -16.9143     0.5564     3.7980 </r>
       <r>   -16.8036     0.9890     3.9075 </r>
       <r>   -16.6929     2.7690     4.2140 </r>
       <r>   -16.5822     6.4610     4.9291 </r>
       <r>   -16.4716     3.7185     5.3406 </r>
       <r>   -16.3609     2.0011     5.5621 </r>
       <r>   -16.2502     2.2001     5.8056 </r>
       <r>   -16.1395     3.0580     6.1440 </r>
       <r>   -16.0289    16.2835     7.9463 </r>
       <r>   -15.9182    27.0122    10.9359 </r>
       <r>   -15.8075     9.0881    11.9418 </r>
       <r>   -15.6968     0.5221    11.9995 </r>
       <r>   -15.5861     0.0041    12.0000 </r>
       <r>   -15.4755     0.0000    12.0000 </r>
       <r>   -15.3648     0.0000    12.0000 </r>
       <r>   -15.2541     0.0000    12.0000 </r>
       <r>   -15.1434     0.0000    12.0000 </r>
       <r>   -15.0328     0.0000    12.0000 </r>
       <r>   -14.9221     0.0000    12.0000 </r>
       <r>   -14.8114     0.0000    12.0000 </r>
       <r>   -14.7007     0.0000    12.0000 </r>
       <r>   -14.5901     0.0000    12.0000 </r>
       <r>   -14.4794     0.0000    12.0000 </r>
       <r>   -14.3687     0.0000    12.0000 </r>
       <r>   -14.2580     0.0000    12.0000 </r>
       <r>   -14.1473     0.0000    12.0000 </r>
       <r>   -14.0367     0.0000    12.0000 </r>
       <r>   -13.9260     0.0000    12.0000 </r>
       <r>   -13.8153     0.0000    12.0000 </r>
       <r>   -13.7046     0.0000    12.0000 </r>
       <r>   -13.5940     0.0000    12.0000 </r>
       <r>   -13.4833     0.0000    12.0000 </r>
       <r>   -13.3726     0.0000    12.0000 </r>
       <r>   -13.2619     0.0000    12.0000 </r>
       <r>   -13.1512     0.0000    12.0000 </r>
       <r>   -13.0406     0.0000    12.0000 </r>
       <r>   -12.9299     0.0000    12.0000 </r>
       <r>   -12.8192     0.0000    12.0000 </r>
       <r>   -12.7085     0.0000    12.0000 </r>
       <r>   -12.5979     0.0000    12.0000 </r>
       <r>   -12.4872     0.0000    12.0000 </r>
       <r>   -12.3765     0.0000    12.0000 </r>
       <r>   -12.2658     0.0000    12.0000 </r>
       <r>   -12.1551     0.0000    12.0000 </r>
       <r>   -12.0445     0.0000    12.0000 </r>
       <r>   -11.9338     0.0000    12.0000 </r>
       <r>   -11.8231     0.0000    12.0000 </r>
       <r>   -11.7124     0.0000    12.0000 </r>
       <r>   -11.6018     0.0000    12.0000 </r>
       <r>   -11.4911     0.0000    12.0000 </r>
       <r>   -11.3804     0.0000    12.0000 </r>
       <r>   -11.2697     0.0000    12.0000 </r>
       <r>   -11.1590     0.0000    12.0000 </r>
       <r>   -11.0484     0.0000    12.0000 </r>
       <r>   -10.9377     0.0000    12.0000 </r>
       <r>   -10.8270     0.0000    12.0000 </r>
       <r>   -10.7163     0.0000    12.0000 </r>
       <r>   -10.6057     0.0000    12.0000 </r>
       <r>   -10.4950     0.0000    12.0000 </r>
       <r>   -10.3843     0.0000    12.0000 </r>
       <r>   -10.2736     0.0000    12.0000 </r>
       <r>   -10.1629     0.0000    12.0000 </r>
       <r>   -10.0523     0.0000    12.0000 </r>
       <r>    -9.9416     0.0000    12.0000 </r>
       <r>    -9.8309     0.0000    12.0000 </r>
       <r>    -9.7202     0.0000    12.0000 </r>
       <r>    -9.6096     0.0000    12.0000 </r>
       <r>    -9.4989     0.0000    12.0000 </r>
       <r>    -9.3882     0.0000    12.0000 </r>
       <r>    -9.2775     0.0000    12.0000 </r>
       <r>    -9.1669     0.0000    12.0000 </r>
       <r>    -9.0562     0.0000    12.0000 </r>
       <r>    -8.9455     0.0000    12.0000 </r>
       <r>    -8.8348     0.0000    12.0000 </r>
       <r>    -8.7241     0.0000    12.0000 </r>
       <r>    -8.6135     0.0000    12.0000 </r>
       <r>    -8.5028     0.0000    12.0000 </r>
       <r>    -8.3921     0.0000    12.0000 </r>
       <r>    -8.2814     0.0000    12.0000 </r>
       <r>    -8.1708     0.0002    12.0000 </r>
       <r>    -8.0601     0.0135    12.0015 </r>
       <r>    -7.9494     0.1168    12.0144 </r>
       <r>    -7.8387     0.1343    12.0293 </r>
       <r>    -7.7280     0.0997    12.0403 </r>
       <r>    -7.6174     0.4385    12.0889 </r>
       <r>    -7.5067     0.9973    12.1993 </r>
       <r>    -7.3960     1.2497    12.3376 </r>
       <r>    -7.2853     1.9716    12.5558 </r>
       <r>    -7.1747     0.9714    12.6633 </r>
       <r>    -7.0640     1.5058    12.8299 </r>
       <r>    -6.9533     4.7560    13.3563 </r>
       <r>    -6.8426     4.6122    13.8668 </r>
       <r>    -6.7319     1.3884    14.0205 </r>
       <r>    -6.6213     0.1928    14.0418 </r>
       <r>    -6.5106     0.7383    14.1235 </r>
       <r>    -6.3999     0.7563    14.2072 </r>
       <r>    -6.2892     0.1028    14.2186 </r>
       <r>    -6.1786     0.0310    14.2220 </r>
       <r>    -6.0679     0.5960    14.2880 </r>
       <r>    -5.9572     3.6660    14.6937 </r>
       <r>    -5.8465     6.9362    15.4614 </r>
       <r>    -5.7358     2.7212    15.7626 </r>
       <r>    -5.6252     0.1674    15.7811 </r>
       <r>    -5.5145     0.0211    15.7834 </r>
       <r>    -5.4038     0.3901    15.8266 </r>
       <r>    -5.2931     1.0013    15.9374 </r>
       <r>    -5.1825     0.9482    16.0424 </r>
       <r>    -5.0718     2.3100    16.2981 </r>
       <r>    -4.9611     3.9062    16.7304 </r>
       <r>    -4.8504     2.9164    17.0532 </r>
       <r>    -4.7398     1.8090    17.2534 </r>
       <r>    -4.6291     1.8640    17.4597 </r>
       <r>    -4.5184     1.9208    17.6723 </r>
       <r>    -4.4077     0.5822    17.7367 </r>
       <r>    -4.2970     0.8059    17.8259 </r>
       <r>    -4.1864     3.3453    18.1962 </r>
       <r>    -4.0757     9.1709    19.2112 </r>
       <r>    -3.9650     9.4645    20.2587 </r>
       <r>    -3.8543     6.6138    20.9907 </r>
       <r>    -3.7437     6.7379    21.7364 </r>
       <r>    -3.6330     5.6283    22.3593 </r>
       <r>    -3.5223     5.6953    22.9897 </r>
       <r>    -3.4116     4.9792    23.5408 </r>
       <r>    -3.3009     2.5542    23.8234 </r>
       <r>    -3.1903     1.3734    23.9755 </r>
       <r>    -3.0796     0.2174    23.9995 </r>
       <r>    -2.9689     0.0043    24.0000 </r>
       <r>    -2.8582     0.0000    24.0000 </r>
       <r>    -2.7476     0.0000    24.0000 </r>
       <r>    -2.6369     0.0000    24.0000 </r>
       <r>    -2.5262     0.0000    24.0000 </r>
       <r>    -2.4155     0.0000    24.0000 </r>
       <r>    -2.3048     0.0000    24.0000 </r>
       <r>    -2.1942     0.0022    24.0002 </r>
       <r>    -2.0835     0.2071    24.0232 </r>
       <r>    -1.9728     2.9708    24.3520 </r>
       <r>    -1.8621     8.1512    25.2541 </r>
       <r>    -1.7515     8.0454    26.1446 </r>
       <r>    -1.6408     6.7240    26.8888 </r>
       <r>    -1.5301     5.2645    27.4714 </r>
       <r>    -1.4194     6.6122    28.2033 </r>
       <r>    -1.3087     8.4192    29.1351 </r>
       <r>    -1.1981     5.7492    29.7714 </r>
       <r>    -1.0874     3.8310    30.1954 </r>
       <r>    -0.9767     5.0863    30.7583 </r>
       <r>    -0.8660     8.4746    31.6963 </r>
       <r>    -0.7554     6.8190    32.4510 </r>
       <r>    -0.6447     7.4500    33.2756 </r>
       <r>    -0.5340     6.1759    33.9591 </r>
       <r>    -0.4233     6.3405    34.6609 </r>
       <r>    -0.3126     5.9223    35.3163 </r>
       <r>    -0.2020     8.3282    36.2381 </r>
       <r>    -0.0913     9.7555    37.3178 </r>
       <r>     0.0194     8.1404    38.2187 </r>
       <r>     0.1301     9.0062    39.2155 </r>
       <r>     0.2407     9.5607    40.2737 </r>
       <r>     0.3514    10.7252    41.4607 </r>
       <r>     0.4621     8.4203    42.3926 </r>
       <r>     0.5728     5.7805    43.0324 </r>
       <r>     0.6834     6.2379    43.7228 </r>
       <r>     0.7941     5.2932    44.3086 </r>
       <r>     0.9048     6.7412    45.0547 </r>
       <r>     1.0155     6.6961    45.7959 </r>
       <r>     1.1262     8.0036    46.6817 </r>
       <r>     1.2368     8.0688    47.5747 </r>
       <r>     1.3475     3.3980    47.9508 </r>
       <r>     1.4582     0.4356    47.9990 </r>
       <r>     1.5689     0.0090    48.0000 </r>
       <r>     1.6795     0.0000    48.0000 </r>
       <r>     1.7902     0.0000    48.0000 </r>
       <r>     1.9009     0.0000    48.0000 </r>
       <r>     2.0116     0.0000    48.0000 </r>
       <r>     2.1223     0.0000    48.0000 </r>
       <r>     2.2329     0.0000    48.0000 </r>
       <r>     2.3436     0.0000    48.0000 </r>
       <r>     2.4543     0.0000    48.0000 </r>
       <r>     2.5650     0.0000    48.0000 </r>
       <r>     2.6756     0.0000    48.0000 </r>
       <r>     2.7863     0.0000    48.0000 </r>
       <r>     2.8970     0.0000    48.0000 </r>
       <r>     3.0077     0.0000    48.0000 </r>
       <r>     3.1184     0.0000    48.0000 </r>
       <r>     3.2290     0.0000    48.0000 </r>
       <r>     3.3397     0.0000    48.0000 </r>
       <r>     3.4504     0.0000    48.0000 </r>
       <r>     3.5611     0.0000    48.0000 </r>
       <r>     3.6717     0.0000    48.0000 </r>
       <r>     3.7824     0.0000    48.0000 </r>
       <r>     3.8931     0.0000    48.0000 </r>
       <r>     4.0038     0.0000    48.0000 </r>
       <r>     4.1145     0.0000    48.0000 </r>
       <r>     4.2251     0.0000    48.0000 </r>
       <r>     4.3358     0.0000    48.0000 </r>
       <r>     4.4465     0.0000    48.0000 </r>
       <r>     4.5572     0.0000    48.0000 </r>
       <r>     4.6678     0.0000    48.0000 </r>
       <r>     4.7785     0.0000    48.0000 </r>
       <r>     4.8892     0.0000    48.0000 </r>
       <r>     4.9999     0.0000    48.0000 </r>
       <r>     5.1106     0.0000    48.0000 </r>
       <r>     5.2212     0.0000    48.0000 </r>
       <r>     5.3319     0.0000    48.0000 </r>
       <r>     5.4426     0.0000    48.0000 </r>
       <r>     5.5533     0.0000    48.0000 </r>
       <r>     5.6639     0.0000    48.0000 </r>
       <r>     5.7746     0.0000    48.0000 </r>
       <r>     5.8853     0.0000    48.0000 </r>
       <r>     5.9960     0.0000    48.0000 </r>
       <r>     6.1066     0.0000    48.0000 </r>
       <r>     6.2173     0.0000    48.0000 </r>
       <r>     6.3280     0.0000    48.0000 </r>
       <r>     6.4387     0.0000    48.0000 </r>
       <r>     6.5494     0.0000    48.0000 </r>
       <r>     6.6600     0.0000    48.0000 </r>
       <r>     6.7707     0.0000    48.0000 </r>
       <r>     6.8814     0.0000    48.0000 </r>
       <r>     6.9921     0.0000    48.0000 </r>
       <r>     7.1027     0.0003    48.0000 </r>
       <r>     7.2134     0.0166    48.0019 </r>
       <r>     7.3241     0.1253    48.0157 </r>
       <r>     7.4348     0.1239    48.0294 </r>
       <r>     7.5455     0.0161    48.0312 </r>
       <r>     7.6561     0.0003    48.0313 </r>
       <r>     7.7668     0.0047    48.0318 </r>
       <r>     7.8775     0.1107    48.0440 </r>
       <r>     7.9882     0.3199    48.0794 </r>
       <r>     8.0988     0.1724    48.0985 </r>
       <r>     8.2095     0.5839    48.1631 </r>
       <r>     8.3202     0.8831    48.2609 </r>
       <r>     8.4309     0.1805    48.2808 </r>
       <r>     8.5416     0.0782    48.2895 </r>
       <r>     8.6522     0.9725    48.3971 </r>
       <r>     8.7629     1.8152    48.5980 </r>
       <r>     8.8736     0.5068    48.6541 </r>
       <r>     8.9843     0.0191    48.6562 </r>
       <r>     9.0949     0.0008    48.6563 </r>
       <r>     9.2056     0.0408    48.6608 </r>
       <r>     9.3163     0.2858    48.6925 </r>
       <r>     9.4270     0.6248    48.7616 </r>
       <r>     9.5377     1.1011    48.8835 </r>
       <r>     9.6483     1.5864    49.0591 </r>
       <r>     9.7590     3.1858    49.4117 </r>
       <r>     9.8697     2.8564    49.7278 </r>
       <r>     9.9804     1.5882    49.9036 </r>
       <r>    10.0910     0.5108    49.9601 </r>
       <r>    10.2017     1.1886    50.0917 </r>
       <r>    10.3124     1.3473    50.2408 </r>
       <r>    10.4231     2.2556    50.4904 </r>
       <r>    10.5338     3.1480    50.8388 </r>
       <r>    10.6444     5.6219    51.4611 </r>
       <r>    10.7551     9.0672    52.4646 </r>
       <r>    10.8658     5.8236    53.1091 </r>
       <r>    10.9765     6.9370    53.8769 </r>
       <r>    11.0871     6.8819    54.6386 </r>
       <r>    11.1978     2.8218    54.9509 </r>
       <r>    11.3085     3.9268    55.3855 </r>
       <r>    11.4192     5.8023    56.0277 </r>
       <r>    11.5298     6.3410    56.7295 </r>
       <r>    11.6405     5.0563    57.2891 </r>
       <r>    11.7512     3.2561    57.6495 </r>
       <r>    11.8619     1.9483    57.8651 </r>
       <r>    11.9726     0.6538    57.9375 </r>
       <r>    12.0832     0.4617    57.9886 </r>
       <r>    12.1939     0.1006    57.9997 </r>
       <r>    12.3046     0.0028    58.0000 </r>
       <r>    12.4153     0.0000    58.0000 </r>
       <r>    12.5259     0.0000    58.0000 </r>
       <r>    12.6366     0.0000    58.0000 </r>
       <r>    12.7473     0.0000    58.0000 </r>
       <r>    12.8580     0.0000    58.0000 </r>
       <r>    12.9687     0.0000    58.0000 </r>
       <r>    13.0793     0.0000    58.0000 </r>
       <r>    13.1900     0.0000    58.0000 </r>
       <r>    13.3007     0.0000    58.0000 </r>
       <r>    13.4114     0.0000    58.0000 </r>
       <r>    13.5220     0.0000    58.0000 </r>
      </set>
     </set>
    </array>
   </total>
  </dos>
 </calculation>
 <structure name="finalpos" >
  <crystal>
   <varray name="basis" >
    <v>       4.87342988       0.00000000       0.00000000 </v>
    <v>      -2.43671494       4.22051408       0.00000000 </v>
    <v>       0.00000000       0.00000000       5.37418982 </v>
   </varray>
   <i name="volume">    110.53837516 </i>
   <varray name="rec_basis" >
    <v>       0.20519429       0.11846898      -0.00000000 </v>
    <v>       0.00000000       0.23693796       0.00000000 </v>
    <v>       0.00000000      -0.00000000       0.18607456 </v>
   </varray>
  </crystal>
  <varray name="positions" >
   <v>       0.46468182       0.00000000       0.66666667 </v>
   <v>       0.99995912       0.46466308       0.33342349 </v>
   <v>       0.53529604       0.53533692       0.99990985 </v>
   <v>       0.13531969       0.72378415       0.55406342 </v>
   <v>       0.27602419       0.41149610       0.22085176 </v>
   <v>       0.58851556       0.86432799       0.88765113 </v>
   <v>       0.41153554       0.27621585       0.77926991 </v>
   <v>       0.86452809       0.58850390       0.11248157 </v>
   <v>       0.72418757       0.13567201       0.44568220 </v>
  </varray>
 </structure>
</modeling>
