<?xml version="1.0" encoding="ISO-8859-1"?>
<modeling>
 <generator>
  <i name="program" type="string">vasp </i>
  <i name="version" type="string">6.4.1  </i>
  <i name="subversion" type="string">05Apr23 (build Sep  6 2023 20:49:31) complex                          parallel </i>
  <i name="platform" type="string">LinuxNV </i>
  <i name="date" type="string">2023 10 19 </i>
  <i name="time" type="string">14:07:46 </i>
 </generator>
 <incar>
  <i type="string" name="PREC">Accurate</i>
  <i type="string" name="ALGO">Fast</i>
  <i name="EDIFF">      0.00000001</i>
  <i name="ENCUT">    500.00000000</i>
  <i type="int" name="ISMEAR">     0</i>
  <i name="SIGMA">      0.10000000</i>
  <i type="logical" name="LEPSILON"> T  </i>
 </incar>
 <primitive_cell>
  <structure name="primitive_cell" >
   <crystal>
    <varray name="basis" >
     <v>       4.87342988       0.00000000       0.00000000 </v>
     <v>      -2.43671494       4.22051408       0.00000000 </v>
     <v>       0.00000000       0.00000000       5.37418982 </v>
    </varray>
    <i name="volume">    110.53837516 </i>
    <varray name="rec_basis" >
     <v>       0.20519429       0.11846898      -0.00000000 </v>
     <v>       0.00000000       0.23693796       0.00000000 </v>
     <v>       0.00000000      -0.00000000       0.18607456 </v>
    </varray>
   </crystal>
   <varray name="positions" >
    <v>       0.46464632       0.00000000       0.66666667 </v>
    <v>       0.00015282       0.46477768       0.33340807 </v>
    <v>       0.53537514       0.53522232       0.99992526 </v>
    <v>       0.13535610       0.72394649       0.55435160 </v>
    <v>       0.27601126       0.41146510       0.22077109 </v>
    <v>       0.58835863       0.86434633       0.88744364 </v>
    <v>       0.41140961       0.27605351       0.77898174 </v>
    <v>       0.86454616       0.58853490       0.11256225 </v>
    <v>       0.72401230       0.13565367       0.44588970 </v>
   </varray>
  </structure>
  <varray name="primitive_index" >
   <v type="int" >        1 </v>
   <v type="int" >        2 </v>
   <v type="int" >        3 </v>
   <v type="int" >        4 </v>
   <v type="int" >        5 </v>
   <v type="int" >        6 </v>
   <v type="int" >        7 </v>
   <v type="int" >        8 </v>
   <v type="int" >        9 </v>
  </varray>
 </primitive_cell>
 <kpoints>
  <generation param="Gamma">
   <v type="int" name="divisions">       4        4        4 </v>
   <v name="usershift">      0.00000000       0.00000000       0.00000000 </v>
   <v name="genvec1">      0.25000000       0.00000000       0.00000000 </v>
   <v name="genvec2">      0.00000000       0.25000000       0.00000000 </v>
   <v name="genvec3">      0.00000000       0.00000000       0.25000000 </v>
   <v name="shift">      0.00000000       0.00000000       0.00000000 </v>
  </generation>
  <varray name="kpointlist" >
   <v>       0.00000000       0.00000000       0.00000000 </v>
   <v>       0.25000000       0.00000000       0.00000000 </v>
   <v>       0.00000000       0.25000000       0.00000000 </v>
   <v>       0.50000000       0.00000000       0.00000000 </v>
   <v>       0.00000000       0.50000000       0.00000000 </v>
   <v>       0.25000000       0.25000000       0.00000000 </v>
   <v>       0.50000000       0.25000000       0.00000000 </v>
   <v>       0.00000000       0.00000000       0.25000000 </v>
   <v>       0.25000000       0.00000000       0.25000000 </v>
   <v>       0.00000000       0.25000000       0.25000000 </v>
   <v>      -0.25000000       0.00000000       0.25000000 </v>
   <v>       0.00000000      -0.25000000       0.25000000 </v>
   <v>       0.50000000       0.00000000       0.25000000 </v>
   <v>       0.00000000       0.50000000       0.25000000 </v>
   <v>       0.25000000       0.25000000       0.25000000 </v>
   <v>       0.50000000       0.25000000       0.25000000 </v>
   <v>      -0.25000000      -0.25000000       0.25000000 </v>
   <v>       0.00000000       0.00000000       0.50000000 </v>
   <v>       0.25000000       0.00000000       0.50000000 </v>
   <v>       0.00000000       0.25000000       0.50000000 </v>
   <v>       0.50000000       0.00000000       0.50000000 </v>
   <v>       0.00000000       0.50000000       0.50000000 </v>
   <v>       0.25000000       0.25000000       0.50000000 </v>
   <v>       0.50000000       0.25000000       0.50000000 </v>
  </varray>
  <varray name="weights" >
   <v>       0.01562500 </v>
   <v>       0.06250000 </v>
   <v>       0.03125000 </v>
   <v>       0.03125000 </v>
   <v>       0.01562500 </v>
   <v>       0.06250000 </v>
   <v>       0.03125000 </v>
   <v>       0.03125000 </v>
   <v>       0.06250000 </v>
   <v>       0.03125000 </v>
   <v>       0.06250000 </v>
   <v>       0.03125000 </v>
   <v>       0.06250000 </v>
   <v>       0.03125000 </v>
   <v>       0.06250000 </v>
   <v>       0.06250000 </v>
   <v>       0.06250000 </v>
   <v>       0.01562500 </v>
   <v>       0.06250000 </v>
   <v>       0.03125000 </v>
   <v>       0.03125000 </v>
   <v>       0.01562500 </v>
   <v>       0.06250000 </v>
   <v>       0.03125000 </v>
  </varray>
 </kpoints>
 <parameters>
  <separator name="general" >
   <i type="string" name="SYSTEM">unknown system</i>
   <i type="logical" name="LCOMPAT"> F  </i>
  </separator>
  <separator name="electronic" >
   <i type="string" name="PREC">accura</i>
   <i name="ENMAX">    500.00000000</i>
   <i name="ENAUG">    605.39200000</i>
   <i name="EDIFF">      0.00000001</i>
   <i type="int" name="IALGO">    68</i>
   <i type="int" name="IWAVPR">    10</i>
   <i type="int" name="NBANDS">    29</i>
   <i type="int" name="NBANDSLOW">    -1</i>
   <i type="int" name="NBANDSHIGH">    -1</i>
   <i name="NELECT">     48.00000000</i>
   <i type="int" name="TURBO">     0</i>
   <i type="int" name="IRESTART">     0</i>
   <i type="int" name="NREBOOT">     0</i>
   <i type="int" name="NMIN">     0</i>
   <i name="EREF">      0.00000000</i>
   <separator name="electronic smearing" >
    <i type="int" name="ISMEAR">     0</i>
    <i name="SIGMA">      0.10000000</i>
    <i name="KSPACING">      0.50000000</i>
    <i type="logical" name="KGAMMA"> T  </i>
    <i type="logical" name="KBLOWUP"> T  </i>
   </separator>
   <separator name="electronic projectors" >
    <i type="logical" name="LREAL"> F  </i>
    <v name="ROPT">      0.00000000      0.00000000</v>
    <i type="int" name="LMAXPAW">  -100</i>
    <i type="int" name="LMAXMIX">     2</i>
    <i type="logical" name="NLSPLINE"> F  </i>
   </separator>
   <separator name="electronic startup" >
    <i type="int" name="ISTART">     0</i>
    <i type="int" name="ICHARG">     2</i>
    <i type="int" name="INIWAV">     1</i>
   </separator>
   <separator name="electronic spin" >
    <i type="int" name="ISPIN">     1</i>
    <i type="logical" name="LNONCOLLINEAR"> F  </i>
    <v name="MAGMOM">      1.00000000      1.00000000      1.00000000      1.00000000      1.00000000      1.00000000      1.00000000      1.00000000      1.00000000</v>
    <i name="NUPDOWN">     -1.00000000</i>
    <i type="logical" name="LSORBIT"> F  </i>
    <v name="SAXIS">      0.00000000      0.00000000      1.00000000</v>
    <i type="logical" name="LSPIRAL"> F  </i>
    <v name="QSPIRAL">      0.00000000      0.00000000      0.00000000</v>
    <i type="logical" name="LZEROZ"> F  </i>
   </separator>
   <separator name="electronic exchange-correlation" >
    <i type="logical" name="LASPH"> F  </i>
    <i type="logical" name="LMETAGGA"> F  </i>
   </separator>
   <separator name="electronic convergence" >
    <i type="int" name="NELM">    60</i>
    <i type="int" name="NELMDL">    -5</i>
    <i type="int" name="NELMIN">     2</i>
    <i name="ENINI">    500.00000000</i>
    <separator name="electronic convergence detail" >
     <i type="logical" name="LDIAG"> T  </i>
     <i type="logical" name="LSUBROT"> F  </i>
     <i name="WEIMIN">      0.00000000</i>
     <i name="EBREAK">      0.00000000</i>
     <i name="DEPER">      0.30000000</i>
     <i type="int" name="NRMM">     4</i>
     <i name="TIME">      0.40000000</i>
    </separator>
   </separator>
   <separator name="electronic mixer" >
    <i name="AMIX">      0.40000000</i>
    <i name="BMIX">      1.00000000</i>
    <i name="AMIN">      0.10000000</i>
    <i name="AMIX_MAG">      1.60000000</i>
    <i name="BMIX_MAG">      1.00000000</i>
    <separator name="electronic mixer details" >
     <i type="int" name="IMIX">     4</i>
     <i type="logical" name="MIXFIRST"> F  </i>
     <i type="int" name="MAXMIX">   -45</i>
     <i name="WC">    100.00000000</i>
     <i type="int" name="INIMIX">     1</i>
     <i type="int" name="MIXPRE">     1</i>
     <i type="int" name="MREMOVE">     5</i>
    </separator>
   </separator>
   <separator name="electronic dipolcorrection" >
    <i type="logical" name="LDIPOL"> F  </i>
    <i type="logical" name="LMONO"> F  </i>
    <i type="int" name="IDIPOL">     0</i>
    <i name="EPSILON">      1.00000000</i>
    <v name="DIPOL">   -100.00000000   -100.00000000   -100.00000000</v>
    <i name="EFIELD">      0.00000000</i>
   </separator>
  </separator>
  <separator name="grids" >
   <i type="int" name="NGX">    36</i>
   <i type="int" name="NGY">    36</i>
   <i type="int" name="NGZ">    40</i>
   <i type="int" name="NGXF">    72</i>
   <i type="int" name="NGYF">    72</i>
   <i type="int" name="NGZF">    80</i>
   <i type="logical" name="ADDGRID"> F  </i>
  </separator>
  <separator name="ionic" >
   <i type="int" name="NSW">     0</i>
   <i type="int" name="IBRION">    -1</i>
   <i type="int" name="MDALGO">     0</i>
   <i type="int" name="ISIF">     2</i>
   <i name="PSTRESS">      0.00000000</i>
   <i name="EDIFFG">      0.00000010</i>
   <i type="int" name="NFREE">     0</i>
   <i name="POTIM">      0.50000000</i>
   <i name="SMASS">     -3.00000000</i>
   <i name="SCALEE">      1.00000000</i>
  </separator>
  <separator name="ionic md" >
   <i name="TEBEG">      0.00010000</i>
   <i name="TEEND">      0.00010000</i>
   <i type="int" name="NBLOCK">     1</i>
   <i type="int" name="KBLOCK">     1</i>
   <i type="int" name="NPACO">   256</i>
   <i name="APACO">     10.00000000</i>
  </separator>
  <separator name="symmetry" >
   <i type="int" name="ISYM">     2</i>
   <i name="SYMPREC">      0.00001000</i>
  </separator>
  <separator name="dos" >
   <i type="int" name="LORBIT">     0</i>
   <v name="RWIGS">     -1.00000000     -1.00000000</v>
   <i type="int" name="NEDOS">   301</i>
   <i name="EMIN">     10.00000000</i>
   <i name="EMAX">    -10.00000000</i>
   <i name="EFERMI">      0.00000000</i>
  </separator>
  <separator name="writing" >
   <i type="int" name="NWRITE">     2</i>
   <i type="logical" name="LWAVE"> T  </i>
   <i type="logical" name="LDOWNSAMPLE"> F  </i>
   <i type="logical" name="LCHARG"> T  </i>
   <i type="logical" name="LPARD"> F  </i>
   <i type="logical" name="LVTOT"> F  </i>
   <i type="logical" name="LVHAR"> F  </i>
   <i type="logical" name="LELF"> F  </i>
   <i type="logical" name="LOPTICS"> F  </i>
   <v name="STM">      0.00000000      0.00000000      0.00000000      0.00000000      0.00000000      0.00000000      0.00000000</v>
  </separator>
  <separator name="performance" >
   <i type="int" name="NPAR">     1</i>
   <i type="int" name="NSIM">     4</i>
   <i type="int" name="NBLK">    -1</i>
   <i type="logical" name="LPLANE"> T  </i>
   <i type="logical" name="LSCALAPACK"> T  </i>
   <i type="logical" name="LSCAAWARE"> F  </i>
   <i type="logical" name="LSCALU"> F  </i>
   <i type="logical" name="LASYNC"> F  </i>
   <i type="logical" name="LORBITALREAL"> F  </i>
  </separator>
  <separator name="miscellaneous" >
   <i type="int" name="IDIOT">     3</i>
   <i type="int" name="PHON_NSTRUCT">    -1</i>
   <i type="logical" name="LMUSIC"> F  </i>
   <v name="POMASS">     28.08500000     16.00000000</v>
   <v name="DARWINR">      0.00000000      0.00000000</v>
   <v name="DARWINV">      1.00000000      1.00000000</v>
   <i type="logical" name="LCORR"> T  </i>
  </separator>
  <i type="logical" name="GGA_COMPAT"> T  </i>
  <i type="logical" name="LBERRY"> F  </i>
  <i type="int" name="ICORELEVEL">     0</i>
  <i type="logical" name="LDAU"> F  </i>
  <i type="int" name="I_CONSTRAINED_M">     0</i>
  <separator name="electronic exchange-correlation" >
   <i type="string" name="GGA">--</i>
   <i type="int" name="VOSKOWN">     0</i>
   <i type="logical" name="LHFCALC"> F  </i>
   <i type="string" name="PRECFOCK"></i>
   <i type="logical" name="LSYMGRAD"> F  </i>
   <i type="logical" name="LHFONE"> F  </i>
   <i type="logical" name="LRHFCALC"> F  </i>
   <i type="logical" name="LTHOMAS"> F  </i>
   <i type="logical" name="LMODELHF"> F  </i>
   <i type="logical" name="LFOCKACE"> F  </i>
   <i name="ENCUT4O">     -1.00000000</i>
   <i type="int" name="EXXOEP">     0</i>
   <i type="int" name="FOURORBIT">     0</i>
   <i name="AEXX">      0.00000000</i>
   <i name="HFALPHA">      0.00000000</i>
   <i name="MCALPHA">      0.00000000</i>
   <i name="ALDAX">      1.00000000</i>
   <i name="AGGAX">      1.00000000</i>
   <i name="ALDAC">      1.00000000</i>
   <i name="AGGAC">      1.00000000</i>
   <i type="int" name="NKREDX">     1</i>
   <i type="int" name="NKREDY">     1</i>
   <i type="int" name="NKREDZ">     1</i>
   <i type="logical" name="SHIFTRED"> F  </i>
   <i type="logical" name="ODDONLY"> F  </i>
   <i type="logical" name="EVENONLY"> F  </i>
   <i type="int" name="LMAXFOCK">     0</i>
   <i type="int" name="NMAXFOCKAE">     0</i>
   <i type="logical" name="LFOCKAEDFT"> F  </i>
   <i name="HFSCREEN">      0.00000000</i>
   <i name="HFSCREENC">      0.00000000</i>
   <i type="int" name="NBANDSGWLOW">     0</i>
  </separator>
  <separator name="vdW DFT" >
   <i type="logical" name="LUSE_VDW"> F  </i>
   <i type="int" name="IVDW_NL">     1</i>
   <i type="logical" name="LSPIN_VDW"> F  </i>
   <i name="Zab_VDW">     -0.84910000</i>
   <i name="PARAM1">      0.12340000</i>
   <i name="PARAM2">      1.00000000</i>
   <i name="PARAM3">      0.00000000</i>
  </separator>
  <separator name="model GW" >
   <i type="int" name="MODEL_GW">     0</i>
   <i name="MODEL_EPS0">      7.36922501</i>
   <i name="MODEL_ALPHA">      1.00000000</i>
  </separator>
  <separator name="linear response parameters" >
   <i type="logical" name="LEPSILON"> T  </i>
   <i type="logical" name="LRPA"> F  </i>
   <i type="logical" name="LNABLA"> F  </i>
   <i type="logical" name="LVEL"> F  </i>
   <i name="CSHIFT">      0.10000000</i>
   <i name="OMEGAMAX">     -1.00000000</i>
   <i name="DEG_THRESHOLD">      0.00200000</i>
   <i name="RTIME">     -0.10000000</i>
   <i name="WPLASMAI">      0.00000000</i>
   <v name="DFIELD">      0.00000000      0.00000000      0.00000000</v>
   <v name="WPLASMA">      0.00000000      0.00000000      0.00000000      0.00000000      0.00000000      0.00000000      0.00000000      0.00000000      0.00000000</v>
  </separator>
  <separator name="orbital magnetization" >
   <i type="logical" name="NUCIND"> F  </i>
   <v name="MAGPOS">      0.00000000      0.00000000      0.00000000</v>
   <i type="logical" name="LNICSALL"> T  </i>
   <i type="logical" name="ORBITALMAG"> F  </i>
   <i type="logical" name="LMAGBLOCH"> F  </i>
   <i type="logical" name="LCHIMAG"> F  </i>
   <i type="logical" name="LGAUGE"> T  </i>
   <i type="int" name="MAGATOM">     0</i>
   <v name="MAGDIPOL">      0.00000000      0.00000000      0.00000000</v>
   <v name="AVECCONST">      0.00000000      0.00000000      0.00000000</v>
  </separator>
  <separator name="response functions" >
   <i type="logical" name="LALL_IN_ONE"> F  </i>
   <i type="int" name="IALL_IN_ONE">    -1</i>
   <i type="int" name="NBANDS_WAVE">    -1</i>
   <i type="logical" name="LFINITE_TEMPERATURE"> F  </i>
   <i type="logical" name="LADDER"> F  </i>
   <i type="logical" name="LRPAFORCE"> F  </i>
   <i type="logical" name="LFXC"> F  </i>
   <i type="logical" name="LHARTREE"> T  </i>
   <i type="int" name="IBSE">     0</i>
   <v type="int" name="KPOINT">    -1     0     0     0</v>
   <i type="logical" name="LTCTC"> F  </i>
   <i type="logical" name="LTCTE"> F  </i>
   <i type="logical" name="LTETE"> F  </i>
   <i type="logical" name="LTRIPLET"> F  </i>
   <i type="logical" name="LFXCEPS"> F  </i>
   <i type="logical" name="LFXHEG"> F  </i>
   <i type="int" name="NATURALO">     2</i>
   <i type="logical" name="LHOLEGF"> F  </i>
   <i type="logical" name="L2ORDER"> F  </i>
   <i type="logical" name="LDMP1"> F  </i>
   <i type="logical" name="LMP2LT"> F  </i>
   <i type="logical" name="LSMP2LT"> F  </i>
   <i type="logical" name="LGWLF"> F  </i>
   <i name="ENCUTGW">     -1.60000002</i>
   <i name="ENCUTGWSOFT">     -1.60000002</i>
   <i name="ENCUTLF">     -1.00000000</i>
   <i type="logical" name="LESF_SPLINES"> F  </i>
   <i type="int" name="LMAXMP2">    -1</i>
   <i name="SCISSOR">      0.00000000</i>
   <i type="int" name="NOMEGA">     0</i>
   <i type="int" name="NOMEGAR">     0</i>
   <i type="int" name="NBANDSGW">    -1</i>
   <i type="int" name="NBANDSO">    -1</i>
   <i type="int" name="NBANDSV">    -1</i>
   <i type="int" name="NELMGW">     1</i>
   <i type="int" name="NELMHF">     1</i>
   <i type="int" name="DIM">     3</i>
   <i type="int" name="IESPILON">     4</i>
   <i type="int" name="ANTIRES">     0</i>
   <i name="OMEGAMAX">    -30.00000000</i>
   <i name="OMEGAMIN">    -30.00000000</i>
   <i name="OMEGATL">   -200.00000000</i>
   <i type="int" name="OMEGAGRID">     0</i>
   <i name="CSHIFT">     -0.10000000</i>
   <i type="logical" name="LSELFENERGY"> F  </i>
   <i type="logical" name="LSPECTRAL"> F  </i>
   <i type="logical" name="LSPECTRALGW"> F  </i>
   <i type="logical" name="LSINGLES"> F  </i>
   <i type="logical" name="LFERMIGW"> F  </i>
   <i type="logical" name="ODDONLYGW"> F  </i>
   <i type="logical" name="EVENONLYGW"> F  </i>
   <i type="int" name="NKREDLFX">     1</i>
   <i type="int" name="NKREDLFY">     1</i>
   <i type="int" name="NKREDLFZ">     1</i>
   <i type="int" name="MAXMEM">  2800</i>
   <i type="int" name="TELESCOPE">     0</i>
   <i type="int" name="NTAUPAR">    -1</i>
   <i type="int" name="NOMEGAPAR">    -1</i>
   <i name="DAMP_NEWTON">      0.80000001</i>
   <i name="LAMBDA">      1.00000000</i>
  </separator>
  <separator name="External order field" >
   <i name="OFIELD_KAPPA">      0.00000000</i>
   <v name="OFIELD_K">      0.00000000      0.00000000      0.00000000</v>
   <i name="OFIELD_Q6_NEAR">      0.00000000</i>
   <i name="OFIELD_Q6_FAR">      0.00000000</i>
   <i name="OFIELD_A">      0.00000000</i>
  </separator>
  <separator name="optional k-points parameters" >
   <i type="int" name="KPOINTS_OPT_MODE">     1</i>
   <i type="logical" name="LKPOINTS_OPT"> F  </i>
  </separator>
 </parameters>
 <atominfo>
  <atoms>       9 </atoms>
  <types>       2 </types>
  <array name="atoms" >
   <dimension dim="1">ion</dimension>
   <field type="string">element</field>
   <field type="int">atomtype</field>
   <set>
    <rc><c>Si</c><c>   1</c></rc>
    <rc><c>Si</c><c>   1</c></rc>
    <rc><c>Si</c><c>   1</c></rc>
    <rc><c>O </c><c>   2</c></rc>
    <rc><c>O </c><c>   2</c></rc>
    <rc><c>O </c><c>   2</c></rc>
    <rc><c>O </c><c>   2</c></rc>
    <rc><c>O </c><c>   2</c></rc>
    <rc><c>O </c><c>   2</c></rc>
   </set>
  </array>
  <array name="atomtypes" >
   <dimension dim="1">type</dimension>
   <field type="int">atomspertype</field>
   <field type="string">element</field>
   <field>mass</field>
   <field>valence</field>
   <field type="string">pseudopotential</field>
   <set>
    <rc><c>   3</c><c>Si</c><c>     28.08500000</c><c>      4.00000000</c><c>  PAW_PBE Si 05Jan2001                  </c></rc>
    <rc><c>   6</c><c>O </c><c>     16.00000000</c><c>      6.00000000</c><c>  PAW_PBE O 08Apr2002                   </c></rc>
   </set>
  </array>
 </atominfo>
 <structure name="initialpos" >
  <crystal>
   <varray name="basis" >
    <v>       4.87342988       0.00000000       0.00000000 </v>
    <v>      -2.43671494       4.22051408       0.00000000 </v>
    <v>       0.00000000       0.00000000       5.37418982 </v>
   </varray>
   <i name="volume">    110.53837516 </i>
   <varray name="rec_basis" >
    <v>       0.20519429       0.11846898      -0.00000000 </v>
    <v>       0.00000000       0.23693796       0.00000000 </v>
    <v>       0.00000000      -0.00000000       0.18607456 </v>
   </varray>
  </crystal>
  <varray name="positions" >
   <v>       0.46464632       0.00000000       0.66666667 </v>
   <v>       0.00015282       0.46477768       0.33340807 </v>
   <v>       0.53537514       0.53522232       0.99992526 </v>
   <v>       0.13535610       0.72394649       0.55435160 </v>
   <v>       0.27601126       0.41146510       0.22077109 </v>
   <v>       0.58835863       0.86434633       0.88744364 </v>
   <v>       0.41140961       0.27605351       0.77898174 </v>
   <v>       0.86454616       0.58853490       0.11256225 </v>
   <v>       0.72401230       0.13565367       0.44588970 </v>
  </varray>
 </structure>
 <calculation>
  <scstep>
   <time name="dav">    0.80    0.79</time>
   <time name="total">    0.83    0.81</time>
   <energy>
    <i name="alphaZ">     71.30271804 </i>
    <i name="ewald">  -1930.19422793 </i>
    <i name="hartreedc">   -909.39712179 </i>
    <i name="XCdc">    141.70969270 </i>
    <i name="pawpsdc">   2343.66826019 </i>
    <i name="pawaedc">  -2301.68043871 </i>
    <i name="eentropy">     -0.00748827 </i>
    <i name="bandstr">    -17.83044611 </i>
    <i name="atom">   2903.33737771 </i>
    <i name="e_fr_energy">    300.90832583 </i>
    <i name="e_wo_entrp">    300.91581409 </i>
    <i name="e_0_energy">    300.91206996 </i>
   </energy>
  </scstep>
  <scstep>
   <time name="dav">    0.82    0.83</time>
   <time name="total">    0.82    0.83</time>
   <energy>
    <i name="e_fr_energy">    -60.95999218 </i>
    <i name="e_wo_entrp">    -60.95999218 </i>
    <i name="e_0_energy">    -60.95999218 </i>
   </energy>
  </scstep>
  <scstep>
   <time name="dav">    0.77    0.77</time>
   <time name="total">    0.77    0.77</time>
   <energy>
    <i name="e_fr_energy">    -80.16482112 </i>
    <i name="e_wo_entrp">    -80.16482112 </i>
    <i name="e_0_energy">    -80.16482112 </i>
   </energy>
  </scstep>
  <scstep>
   <time name="dav">    0.78    0.78</time>
   <time name="total">    0.78    0.78</time>
   <energy>
    <i name="e_fr_energy">    -80.41819424 </i>
    <i name="e_wo_entrp">    -80.41819424 </i>
    <i name="e_0_energy">    -80.41819424 </i>
   </energy>
  </scstep>
  <scstep>
   <time name="dav">    0.76    0.76</time>
   <time name="total">    0.89    0.86</time>
   <energy>
    <i name="e_fr_energy">    -80.42329640 </i>
    <i name="e_wo_entrp">    -80.42329640 </i>
    <i name="e_0_energy">    -80.42329640 </i>
   </energy>
  </scstep>
  <scstep>
   <time name="diag">    0.08    0.08</time>
   <time name="diis">    0.86    0.86</time>
   <time name="orth">    0.01    0.01</time>
   <time name="total">    1.10    1.05</time>
   <energy>
    <i name="e_fr_energy">    -70.67426813 </i>
    <i name="e_wo_entrp">    -70.67426813 </i>
    <i name="e_0_energy">    -70.67426813 </i>
   </energy>
  </scstep>
  <scstep>
   <time name="diag">    0.08    0.08</time>
   <time name="diis">    0.94    0.95</time>
   <time name="orth">    0.01    0.01</time>
   <time name="total">    1.19    1.14</time>
   <energy>
    <i name="e_fr_energy">    -70.97636539 </i>
    <i name="e_wo_entrp">    -70.97636539 </i>
    <i name="e_0_energy">    -70.97636539 </i>
   </energy>
  </scstep>
  <scstep>
   <time name="diag">    0.08    0.08</time>
   <time name="diis">    0.95    0.95</time>
   <time name="orth">    0.01    0.01</time>
   <time name="total">    1.19    1.14</time>
   <energy>
    <i name="e_fr_energy">    -70.96833472 </i>
    <i name="e_wo_entrp">    -70.96833472 </i>
    <i name="e_0_energy">    -70.96833472 </i>
   </energy>
  </scstep>
  <scstep>
   <time name="diag">    0.08    0.08</time>
   <time name="diis">    0.96    0.97</time>
   <time name="orth">    0.01    0.01</time>
   <time name="total">    1.21    1.16</time>
   <energy>
    <i name="e_fr_energy">    -70.98743367 </i>
    <i name="e_wo_entrp">    -70.98743367 </i>
    <i name="e_0_energy">    -70.98743367 </i>
   </energy>
  </scstep>
  <scstep>
   <time name="diag">    0.08    0.08</time>
   <time name="diis">    0.97    0.97</time>
   <time name="orth">    0.01    0.01</time>
   <time name="total">    1.22    1.16</time>
   <energy>
    <i name="e_fr_energy">    -70.99274465 </i>
    <i name="e_wo_entrp">    -70.99274465 </i>
    <i name="e_0_energy">    -70.99274465 </i>
   </energy>
  </scstep>
  <scstep>
   <time name="diag">    0.08    0.08</time>
   <time name="diis">    0.96    0.97</time>
   <time name="orth">    0.01    0.01</time>
   <time name="total">    1.21    1.16</time>
   <energy>
    <i name="e_fr_energy">    -70.98887924 </i>
    <i name="e_wo_entrp">    -70.98887924 </i>
    <i name="e_0_energy">    -70.98887924 </i>
   </energy>
  </scstep>
  <scstep>
   <time name="diag">    0.08    0.08</time>
   <time name="diis">    0.97    0.97</time>
   <time name="orth">    0.01    0.01</time>
   <time name="total">    1.21    1.17</time>
   <energy>
    <i name="e_fr_energy">    -70.98949029 </i>
    <i name="e_wo_entrp">    -70.98949029 </i>
    <i name="e_0_energy">    -70.98949029 </i>
   </energy>
  </scstep>
  <scstep>
   <time name="diag">    0.08    0.08</time>
   <time name="diis">    1.02    1.03</time>
   <time name="orth">    0.01    0.01</time>
   <time name="total">    1.27    1.22</time>
   <energy>
    <i name="e_fr_energy">    -70.98925493 </i>
    <i name="e_wo_entrp">    -70.98925493 </i>
    <i name="e_0_energy">    -70.98925493 </i>
   </energy>
  </scstep>
  <scstep>
   <time name="diag">    0.08    0.08</time>
   <time name="diis">    0.97    0.98</time>
   <time name="orth">    0.01    0.01</time>
   <time name="total">    1.22    1.17</time>
   <energy>
    <i name="e_fr_energy">    -70.98920884 </i>
    <i name="e_wo_entrp">    -70.98920884 </i>
    <i name="e_0_energy">    -70.98920884 </i>
   </energy>
  </scstep>
  <scstep>
   <time name="diag">    0.08    0.08</time>
   <time name="diis">    1.06    1.07</time>
   <time name="orth">    0.01    0.01</time>
   <time name="total">    1.31    1.26</time>
   <energy>
    <i name="e_fr_energy">    -70.98920593 </i>
    <i name="e_wo_entrp">    -70.98920593 </i>
    <i name="e_0_energy">    -70.98920593 </i>
   </energy>
  </scstep>
  <scstep>
   <time name="diag">    0.08    0.08</time>
   <time name="diis">    0.97    0.97</time>
   <time name="orth">    0.01    0.01</time>
   <time name="total">    1.22    1.17</time>
   <energy>
    <i name="e_fr_energy">    -70.98920492 </i>
    <i name="e_wo_entrp">    -70.98920492 </i>
    <i name="e_0_energy">    -70.98920492 </i>
   </energy>
  </scstep>
  <scstep>
   <time name="diag">    0.08    0.08</time>
   <time name="diis">    0.98    0.98</time>
   <time name="orth">    0.01    0.01</time>
   <time name="total">    1.22    1.17</time>
   <energy>
    <i name="e_fr_energy">    -70.98920522 </i>
    <i name="e_wo_entrp">    -70.98920522 </i>
    <i name="e_0_energy">    -70.98920522 </i>
   </energy>
  </scstep>
  <scstep>
   <time name="diag">    0.08    0.08</time>
   <time name="diis">    0.99    0.99</time>
   <time name="orth">    0.01    0.01</time>
   <time name="total">    1.23    1.18</time>
   <energy>
    <i name="e_fr_energy">    -70.98920548 </i>
    <i name="e_wo_entrp">    -70.98920548 </i>
    <i name="e_0_energy">    -70.98920548 </i>
   </energy>
  </scstep>
  <scstep>
   <time name="diag">    0.08    0.08</time>
   <time name="diis">    0.97    0.97</time>
   <time name="orth">    0.01    0.01</time>
   <time name="total">    1.22    1.17</time>
   <energy>
    <i name="e_fr_energy">    -70.98920540 </i>
    <i name="e_wo_entrp">    -70.98920540 </i>
    <i name="e_0_energy">    -70.98920540 </i>
   </energy>
  </scstep>
  <scstep>
   <time name="diag">    0.08    0.08</time>
   <time name="diis">    0.97    0.98</time>
   <time name="orth">    0.01    0.01</time>
   <time name="total">    1.22    1.17</time>
   <energy>
    <i name="e_fr_energy">    -70.98920544 </i>
    <i name="e_wo_entrp">    -70.98920544 </i>
    <i name="e_0_energy">    -70.98920544 </i>
   </energy>
  </scstep>
  <scstep>
   <time name="diag">    0.08    0.08</time>
   <time name="diis">    0.67    0.68</time>
   <time name="orth">    0.01    0.01</time>
   <time name="total">    0.92    0.87</time>
   <energy>
    <i name="e_fr_energy">    -70.98920541 </i>
    <i name="e_wo_entrp">    -70.98920541 </i>
    <i name="e_0_energy">    -70.98920541 </i>
   </energy>
  </scstep>
  <scstep>
   <time name="diag">    0.08    0.08</time>
   <time name="diis">    0.65    0.65</time>
   <time name="orth">    0.01    0.01</time>
   <time name="total">    0.77    0.75</time>
   <energy>
    <i name="alphaZ">     71.30271804 </i>
    <i name="ewald">  -1930.19422793 </i>
    <i name="hartreedc">  -1040.55728060 </i>
    <i name="XCdc">    150.68547059 </i>
    <i name="pawpsdc">   8045.47615222 </i>
    <i name="pawaedc">  -8005.85395369 </i>
    <i name="eentropy">     -0.00000000 </i>
    <i name="bandstr">   -265.18546175 </i>
    <i name="atom">   2903.33737771 </i>
    <i name="e_fr_energy">    -70.98920541 </i>
    <i name="e_wo_entrp">    -70.98920541 </i>
    <i name="e_0_energy">    -70.98920541 </i>
   </energy>
  </scstep>
  <structure>
   <crystal>
    <varray name="basis" >
     <v>       4.87342988       0.00000000       0.00000000 </v>
     <v>      -2.43671494       4.22051408       0.00000000 </v>
     <v>       0.00000000       0.00000000       5.37418982 </v>
    </varray>
    <i name="volume">    110.53837516 </i>
    <varray name="rec_basis" >
     <v>       0.20519429       0.11846898      -0.00000000 </v>
     <v>       0.00000000       0.23693796       0.00000000 </v>
     <v>       0.00000000      -0.00000000       0.18607456 </v>
    </varray>
   </crystal>
   <varray name="positions" >
    <v>       0.46464632       0.00000000       0.66666667 </v>
    <v>       0.00015282       0.46477768       0.33340807 </v>
    <v>       0.53537514       0.53522232       0.99992526 </v>
    <v>       0.13535610       0.72394649       0.55435160 </v>
    <v>       0.27601126       0.41146510       0.22077109 </v>
    <v>       0.58835863       0.86434633       0.88744364 </v>
    <v>       0.41140961       0.27605351       0.77898174 </v>
    <v>       0.86454616       0.58853490       0.11256225 </v>
    <v>       0.72401230       0.13565367       0.44588970 </v>
   </varray>
  </structure>
  <varray name="forces" >
   <v>       0.02073489       0.00000000       0.00000000 </v>
   <v>      -0.01644352       0.00994184      -0.00577442 </v>
   <v>      -0.01644352      -0.00994184       0.00577442 </v>
   <v>      -0.27072526       0.00016296       0.14617767 </v>
   <v>       0.13801340      -0.23638169       0.15689991 </v>
   <v>       0.13878794       0.24462350       0.15704358 </v>
   <v>      -0.27072526      -0.00016296      -0.14617767 </v>
   <v>       0.13801340       0.23638169      -0.15689991 </v>
   <v>       0.13878794      -0.24462350      -0.15704358 </v>
  </varray>
  <varray name="stress" >
   <v>      71.73926721       0.00000000       0.00000000 </v>
   <v>       0.00000000      72.18492772       0.15369544 </v>
   <v>       0.00000000       0.15369593      73.61272483 </v>
  </varray>
  <energy>
   <i name="e_fr_energy">    -70.98920541 </i>
   <i name="e_wo_entrp">    -70.98920541 </i>
   <i name="e_0_energy">    -70.98920541 </i>
  </energy>
  <scstep>
   <time name="total">   12.10    2.57</time>
   <energy>
    <i name="e_fr_energy">   -182.47511950 </i>
    <i name="e_wo_entrp">   -182.47511950 </i>
    <i name="e_0_energy">   -182.47511950 </i>
   </energy>
  </scstep>
  <scstep>
   <time name="total">   11.86    2.26</time>
   <energy>
    <i name="e_fr_energy">   -172.60512870 </i>
    <i name="e_wo_entrp">   -172.60512870 </i>
    <i name="e_0_energy">   -172.60512870 </i>
   </energy>
  </scstep>
  <scstep>
   <time name="total">   11.87    2.28</time>
   <energy>
    <i name="e_fr_energy">   -172.75351636 </i>
    <i name="e_wo_entrp">   -172.75351636 </i>
    <i name="e_0_energy">   -172.75351636 </i>
   </energy>
  </scstep>
  <scstep>
   <time name="total">    0.91    0.92</time>
   <energy>
    <i name="e_fr_energy">   -172.76103267 </i>
    <i name="e_wo_entrp">   -172.76103267 </i>
    <i name="e_0_energy">   -172.76103267 </i>
   </energy>
  </scstep>
  <scstep>
   <time name="total">    0.92    0.93</time>
   <energy>
    <i name="e_fr_energy">   -172.76121675 </i>
    <i name="e_wo_entrp">   -172.76121675 </i>
    <i name="e_0_energy">   -172.76121675 </i>
   </energy>
  </scstep>
  <scstep>
   <time name="total">    0.97    0.99</time>
   <energy>
    <i name="e_fr_energy">   -172.76123658 </i>
    <i name="e_wo_entrp">   -172.76123658 </i>
    <i name="e_0_energy">   -172.76123658 </i>
   </energy>
  </scstep>
  <scstep>
   <time name="total">    0.99    0.99</time>
   <energy>
    <i name="e_fr_energy">   -172.76122770 </i>
    <i name="e_wo_entrp">   -172.76122770 </i>
    <i name="e_0_energy">   -172.76122770 </i>
   </energy>
  </scstep>
  <scstep>
   <time name="total">    0.99    0.99</time>
   <energy>
    <i name="e_fr_energy">   -172.76122526 </i>
    <i name="e_wo_entrp">   -172.76122526 </i>
    <i name="e_0_energy">   -172.76122526 </i>
   </energy>
  </scstep>
  <scstep>
   <time name="total">    0.99    0.99</time>
   <energy>
    <i name="e_fr_energy">   -172.76122302 </i>
    <i name="e_wo_entrp">   -172.76122302 </i>
    <i name="e_0_energy">   -172.76122302 </i>
   </energy>
  </scstep>
  <scstep>
   <time name="total">    1.00    1.00</time>
   <energy>
    <i name="e_fr_energy">   -172.76122275 </i>
    <i name="e_wo_entrp">   -172.76122275 </i>
    <i name="e_0_energy">   -172.76122275 </i>
   </energy>
  </scstep>
  <scstep>
   <time name="total">   12.13    2.58</time>
   <energy>
    <i name="e_fr_energy">   -182.31000614 </i>
    <i name="e_wo_entrp">   -182.31000614 </i>
    <i name="e_0_energy">   -182.31000614 </i>
   </energy>
  </scstep>
  <scstep>
   <time name="total">   11.82    2.26</time>
   <energy>
    <i name="e_fr_energy">   -172.61245529 </i>
    <i name="e_wo_entrp">   -172.61245529 </i>
    <i name="e_0_energy">   -172.61245529 </i>
   </energy>
  </scstep>
  <scstep>
   <time name="total">   11.86    2.28</time>
   <energy>
    <i name="e_fr_energy">   -172.75627217 </i>
    <i name="e_wo_entrp">   -172.75627217 </i>
    <i name="e_0_energy">   -172.75627217 </i>
   </energy>
  </scstep>
  <scstep>
   <time name="total">    0.91    0.91</time>
   <energy>
    <i name="e_fr_energy">   -172.76347734 </i>
    <i name="e_wo_entrp">   -172.76347734 </i>
    <i name="e_0_energy">   -172.76347734 </i>
   </energy>
  </scstep>
  <scstep>
   <time name="total">    0.92    0.93</time>
   <energy>
    <i name="e_fr_energy">   -172.76364442 </i>
    <i name="e_wo_entrp">   -172.76364442 </i>
    <i name="e_0_energy">   -172.76364442 </i>
   </energy>
  </scstep>
  <scstep>
   <time name="total">    0.97    0.97</time>
   <energy>
    <i name="e_fr_energy">   -172.76365589 </i>
    <i name="e_wo_entrp">   -172.76365589 </i>
    <i name="e_0_energy">   -172.76365589 </i>
   </energy>
  </scstep>
  <scstep>
   <time name="total">    0.99    0.99</time>
   <energy>
    <i name="e_fr_energy">   -172.76366036 </i>
    <i name="e_wo_entrp">   -172.76366036 </i>
    <i name="e_0_energy">   -172.76366036 </i>
   </energy>
  </scstep>
  <scstep>
   <time name="total">    0.99    0.99</time>
   <energy>
    <i name="e_fr_energy">   -172.76366325 </i>
    <i name="e_wo_entrp">   -172.76366325 </i>
    <i name="e_0_energy">   -172.76366325 </i>
   </energy>
  </scstep>
  <scstep>
   <time name="total">    0.98    0.99</time>
   <energy>
    <i name="e_fr_energy">   -172.76366481 </i>
    <i name="e_wo_entrp">   -172.76366481 </i>
    <i name="e_0_energy">   -172.76366481 </i>
   </energy>
  </scstep>
  <scstep>
   <time name="total">    0.99    0.99</time>
   <energy>
    <i name="e_fr_energy">   -172.76366297 </i>
    <i name="e_wo_entrp">   -172.76366297 </i>
    <i name="e_0_energy">   -172.76366297 </i>
   </energy>
  </scstep>
  <scstep>
   <time name="total">   12.85    2.68</time>
   <energy>
    <i name="e_fr_energy">   -182.18715095 </i>
    <i name="e_wo_entrp">   -182.18715095 </i>
    <i name="e_0_energy">   -182.18715095 </i>
   </energy>
  </scstep>
  <scstep>
   <time name="total">   11.80    2.24</time>
   <energy>
    <i name="e_fr_energy">   -172.56338449 </i>
    <i name="e_wo_entrp">   -172.56338449 </i>
    <i name="e_0_energy">   -172.56338449 </i>
   </energy>
  </scstep>
  <scstep>
   <time name="total">   11.93    2.28</time>
   <energy>
    <i name="e_fr_energy">   -172.71129954 </i>
    <i name="e_wo_entrp">   -172.71129954 </i>
    <i name="e_0_energy">   -172.71129954 </i>
   </energy>
  </scstep>
  <scstep>
   <time name="total">    0.91    0.91</time>
   <energy>
    <i name="e_fr_energy">   -172.71795663 </i>
    <i name="e_wo_entrp">   -172.71795663 </i>
    <i name="e_0_energy">   -172.71795663 </i>
   </energy>
  </scstep>
  <scstep>
   <time name="total">    0.91    0.91</time>
   <energy>
    <i name="e_fr_energy">   -172.71805329 </i>
    <i name="e_wo_entrp">   -172.71805329 </i>
    <i name="e_0_energy">   -172.71805329 </i>
   </energy>
  </scstep>
  <scstep>
   <time name="total">    0.94    0.95</time>
   <energy>
    <i name="e_fr_energy">   -172.71804792 </i>
    <i name="e_wo_entrp">   -172.71804792 </i>
    <i name="e_0_energy">   -172.71804792 </i>
   </energy>
  </scstep>
  <scstep>
   <time name="total">    0.97    0.97</time>
   <energy>
    <i name="e_fr_energy">   -172.71806989 </i>
    <i name="e_wo_entrp">   -172.71806989 </i>
    <i name="e_0_energy">   -172.71806989 </i>
   </energy>
  </scstep>
  <scstep>
   <time name="total">    0.97    0.97</time>
   <energy>
    <i name="e_fr_energy">   -172.71805489 </i>
    <i name="e_wo_entrp">   -172.71805489 </i>
    <i name="e_0_energy">   -172.71805489 </i>
   </energy>
  </scstep>
  <scstep>
   <time name="total">    0.98    0.99</time>
   <energy>
    <i name="e_fr_energy">   -172.71806637 </i>
    <i name="e_wo_entrp">   -172.71806637 </i>
    <i name="e_0_energy">   -172.71806637 </i>
   </energy>
  </scstep>
  <scstep>
   <time name="total">    0.98    0.99</time>
   <energy>
    <i name="e_fr_energy">   -172.71804849 </i>
    <i name="e_wo_entrp">   -172.71804849 </i>
    <i name="e_0_energy">   -172.71804849 </i>
   </energy>
  </scstep>
  <scstep>
   <time name="total">    1.69    1.22</time>
   <energy>
    <i name="e_fr_energy">     -0.48322359 </i>
    <i name="e_wo_entrp">     -0.48322359 </i>
    <i name="e_0_energy">     -0.48322359 </i>
   </energy>
  </scstep>
  <scstep>
   <time name="total">    1.72    1.23</time>
   <energy>
    <i name="e_fr_energy">     -0.48542986 </i>
    <i name="e_wo_entrp">     -0.48542986 </i>
    <i name="e_0_energy">     -0.48542986 </i>
   </energy>
  </scstep>
  <scstep>
   <time name="total">    1.69    1.22</time>
   <energy>
    <i name="e_fr_energy">     -0.48561775 </i>
    <i name="e_wo_entrp">     -0.48561775 </i>
    <i name="e_0_energy">     -0.48561775 </i>
   </energy>
  </scstep>
  <scstep>
   <time name="total">    1.70    1.23</time>
   <energy>
    <i name="e_fr_energy">     -0.48562632 </i>
    <i name="e_wo_entrp">     -0.48562632 </i>
    <i name="e_0_energy">     -0.48562632 </i>
   </energy>
  </scstep>
  <scstep>
   <time name="total">    1.70    1.23</time>
   <energy>
    <i name="e_fr_energy">     -0.48562662 </i>
    <i name="e_wo_entrp">     -0.48562662 </i>
    <i name="e_0_energy">     -0.48562662 </i>
   </energy>
  </scstep>
  <scstep>
   <time name="total">    1.66    1.19</time>
   <energy>
    <i name="e_fr_energy">     -0.48562664 </i>
    <i name="e_wo_entrp">     -0.48562664 </i>
    <i name="e_0_energy">     -0.48562664 </i>
   </energy>
  </scstep>
  <scstep>
   <time name="total">    1.61    1.15</time>
   <energy>
    <i name="e_fr_energy">     -0.48562664 </i>
    <i name="e_wo_entrp">     -0.48562664 </i>
    <i name="e_0_energy">     -0.48562664 </i>
   </energy>
  </scstep>
  <scstep>
   <time name="total">    1.62    1.15</time>
   <energy>
    <i name="e_fr_energy">     -0.48562664 </i>
    <i name="e_wo_entrp">     -0.48562664 </i>
    <i name="e_0_energy">     -0.48562664 </i>
   </energy>
  </scstep>
  <scstep>
   <time name="total">    1.61    1.14</time>
   <energy>
    <i name="e_fr_energy">     -0.48562664 </i>
    <i name="e_wo_entrp">     -0.48562664 </i>
    <i name="e_0_energy">     -0.48562664 </i>
   </energy>
  </scstep>
  <scstep>
   <time name="total">    1.70    1.23</time>
   <energy>
    <i name="e_fr_energy">     -0.48315743 </i>
    <i name="e_wo_entrp">     -0.48315743 </i>
    <i name="e_0_energy">     -0.48315743 </i>
   </energy>
  </scstep>
  <scstep>
   <time name="total">    1.69    1.22</time>
   <energy>
    <i name="e_fr_energy">     -0.48531231 </i>
    <i name="e_wo_entrp">     -0.48531231 </i>
    <i name="e_0_energy">     -0.48531231 </i>
   </energy>
  </scstep>
  <scstep>
   <time name="total">    1.70    1.23</time>
   <energy>
    <i name="e_fr_energy">     -0.48550102 </i>
    <i name="e_wo_entrp">     -0.48550102 </i>
    <i name="e_0_energy">     -0.48550102 </i>
   </energy>
  </scstep>
  <scstep>
   <time name="total">    1.71    1.23</time>
   <energy>
    <i name="e_fr_energy">     -0.48550969 </i>
    <i name="e_wo_entrp">     -0.48550969 </i>
    <i name="e_0_energy">     -0.48550969 </i>
   </energy>
  </scstep>
  <scstep>
   <time name="total">    1.70    1.24</time>
   <energy>
    <i name="e_fr_energy">     -0.48550999 </i>
    <i name="e_wo_entrp">     -0.48550999 </i>
    <i name="e_0_energy">     -0.48550999 </i>
   </energy>
  </scstep>
  <scstep>
   <time name="total">    1.66    1.19</time>
   <energy>
    <i name="e_fr_energy">     -0.48551001 </i>
    <i name="e_wo_entrp">     -0.48551001 </i>
    <i name="e_0_energy">     -0.48551001 </i>
   </energy>
  </scstep>
  <scstep>
   <time name="total">    1.64    1.17</time>
   <energy>
    <i name="e_fr_energy">     -0.48551001 </i>
    <i name="e_wo_entrp">     -0.48551001 </i>
    <i name="e_0_energy">     -0.48551001 </i>
   </energy>
  </scstep>
  <scstep>
   <time name="total">    1.63    1.16</time>
   <energy>
    <i name="e_fr_energy">     -0.48551002 </i>
    <i name="e_wo_entrp">     -0.48551002 </i>
    <i name="e_0_energy">     -0.48551002 </i>
   </energy>
  </scstep>
  <scstep>
   <time name="total">    1.62    1.15</time>
   <energy>
    <i name="e_fr_energy">     -0.48551001 </i>
    <i name="e_wo_entrp">     -0.48551001 </i>
    <i name="e_0_energy">     -0.48551001 </i>
   </energy>
  </scstep>
  <scstep>
   <time name="total">    1.69    1.21</time>
   <energy>
    <i name="e_fr_energy">     -0.48760999 </i>
    <i name="e_wo_entrp">     -0.48760999 </i>
    <i name="e_0_energy">     -0.48760999 </i>
   </energy>
  </scstep>
  <scstep>
   <time name="total">    1.67    1.20</time>
   <energy>
    <i name="e_fr_energy">     -0.48965561 </i>
    <i name="e_wo_entrp">     -0.48965561 </i>
    <i name="e_0_energy">     -0.48965561 </i>
   </energy>
  </scstep>
  <scstep>
   <time name="total">    1.69    1.22</time>
   <energy>
    <i name="e_fr_energy">     -0.48984663 </i>
    <i name="e_wo_entrp">     -0.48984663 </i>
    <i name="e_0_energy">     -0.48984663 </i>
   </energy>
  </scstep>
  <scstep>
   <time name="total">    1.70    1.23</time>
   <energy>
    <i name="e_fr_energy">     -0.48985556 </i>
    <i name="e_wo_entrp">     -0.48985556 </i>
    <i name="e_0_energy">     -0.48985556 </i>
   </energy>
  </scstep>
  <scstep>
   <time name="total">    1.71    1.23</time>
   <energy>
    <i name="e_fr_energy">     -0.48985586 </i>
    <i name="e_wo_entrp">     -0.48985586 </i>
    <i name="e_0_energy">     -0.48985586 </i>
   </energy>
  </scstep>
  <scstep>
   <time name="total">    1.66    1.19</time>
   <energy>
    <i name="e_fr_energy">     -0.48985588 </i>
    <i name="e_wo_entrp">     -0.48985588 </i>
    <i name="e_0_energy">     -0.48985588 </i>
   </energy>
  </scstep>
  <scstep>
   <time name="total">    1.61    1.14</time>
   <energy>
    <i name="e_fr_energy">     -0.48985589 </i>
    <i name="e_wo_entrp">     -0.48985589 </i>
    <i name="e_0_energy">     -0.48985589 </i>
   </energy>
  </scstep>
  <scstep>
   <time name="total">    1.59    1.13</time>
   <energy>
    <i name="e_fr_energy">     -0.48985589 </i>
    <i name="e_wo_entrp">     -0.48985589 </i>
    <i name="e_0_energy">     -0.48985589 </i>
   </energy>
  </scstep>
  <scstep>
   <time name="total">    2.01    1.18</time>
   <energy>
    <i name="e_fr_energy">     -0.48985589 </i>
    <i name="e_wo_entrp">     -0.48985589 </i>
    <i name="e_0_energy">     -0.48985589 </i>
   </energy>
  </scstep>
  <scstep>
   <time name="total">    1.59    1.12</time>
   <energy>
    <i name="e_fr_energy">     -0.48985589 </i>
    <i name="e_wo_entrp">     -0.48985589 </i>
    <i name="e_0_energy">     -0.48985589 </i>
   </energy>
  </scstep>
  <varray name="dielectric_ipa" >
   <v>       2.58995222       0.00000000       0.00000000 </v>
   <v>       0.00000000       2.58956631       0.00002452 </v>
   <v>       0.00000000       0.00002416       2.60380420 </v>
  </varray>
  <kpoints>
   <generation param="Gamma">
    <v type="int" name="divisions">       4        4        4 </v>
    <v name="usershift">      0.00000000       0.00000000       0.00000000 </v>
    <v name="genvec1">      0.25000000       0.00000000       0.00000000 </v>
    <v name="genvec2">      0.00000000       0.25000000       0.00000000 </v>
    <v name="genvec3">      0.00000000       0.00000000       0.25000000 </v>
    <v name="shift">      0.00000000       0.00000000       0.00000000 </v>
   </generation>
   <varray name="kpointlist" >
    <v>       0.00000000       0.00000000       0.00000000 </v>
    <v>       0.25000000       0.00000000       0.00000000 </v>
    <v>       0.00000000       0.25000000       0.00000000 </v>
    <v>       0.50000000       0.00000000       0.00000000 </v>
    <v>       0.00000000       0.50000000       0.00000000 </v>
    <v>       0.25000000       0.25000000       0.00000000 </v>
    <v>       0.50000000       0.25000000       0.00000000 </v>
    <v>       0.00000000       0.00000000       0.25000000 </v>
    <v>       0.25000000       0.00000000       0.25000000 </v>
    <v>       0.00000000       0.25000000       0.25000000 </v>
    <v>      -0.25000000       0.00000000       0.25000000 </v>
    <v>       0.00000000      -0.25000000       0.25000000 </v>
    <v>       0.50000000       0.00000000       0.25000000 </v>
    <v>       0.00000000       0.50000000       0.25000000 </v>
    <v>       0.25000000       0.25000000       0.25000000 </v>
    <v>       0.50000000       0.25000000       0.25000000 </v>
    <v>      -0.25000000      -0.25000000       0.25000000 </v>
    <v>       0.00000000       0.00000000       0.50000000 </v>
    <v>       0.25000000       0.00000000       0.50000000 </v>
    <v>       0.00000000       0.25000000       0.50000000 </v>
    <v>       0.50000000       0.00000000       0.50000000 </v>
    <v>       0.00000000       0.50000000       0.50000000 </v>
    <v>       0.25000000       0.25000000       0.50000000 </v>
    <v>       0.50000000       0.25000000       0.50000000 </v>
   </varray>
   <varray name="weights" >
    <v>       0.01562500 </v>
    <v>       0.06250000 </v>
    <v>       0.03125000 </v>
    <v>       0.03125000 </v>
    <v>       0.01562500 </v>
    <v>       0.06250000 </v>
    <v>       0.03125000 </v>
    <v>       0.03125000 </v>
    <v>       0.06250000 </v>
    <v>       0.03125000 </v>
    <v>       0.06250000 </v>
    <v>       0.03125000 </v>
    <v>       0.06250000 </v>
    <v>       0.03125000 </v>
    <v>       0.06250000 </v>
    <v>       0.06250000 </v>
    <v>       0.06250000 </v>
    <v>       0.01562500 </v>
    <v>       0.06250000 </v>
    <v>       0.03125000 </v>
    <v>       0.03125000 </v>
    <v>       0.01562500 </v>
    <v>       0.06250000 </v>
    <v>       0.03125000 </v>
   </varray>
  </kpoints>
  <scstep>
   <time name="total">    1.69    1.22</time>
   <energy>
    <i name="e_fr_energy">     -0.48322359 </i>
    <i name="e_wo_entrp">     -0.48322359 </i>
    <i name="e_0_energy">     -0.48322359 </i>
   </energy>
  </scstep>
  <scstep>
   <time name="total">    1.76    1.27</time>
   <energy>
    <i name="e_fr_energy">     -0.48542986 </i>
    <i name="e_wo_entrp">     -0.48542986 </i>
    <i name="e_0_energy">     -0.48542986 </i>
   </energy>
  </scstep>
  <scstep>
   <time name="total">    1.76    1.27</time>
   <energy>
    <i name="e_fr_energy">     -0.46489211 </i>
    <i name="e_wo_entrp">     -0.46489211 </i>
    <i name="e_0_energy">     -0.46489211 </i>
   </energy>
  </scstep>
  <scstep>
   <time name="total">    1.76    1.27</time>
   <energy>
    <i name="e_fr_energy">     -0.47594920 </i>
    <i name="e_wo_entrp">     -0.47594920 </i>
    <i name="e_0_energy">     -0.47594920 </i>
   </energy>
  </scstep>
  <scstep>
   <time name="total">    1.75    1.26</time>
   <energy>
    <i name="e_fr_energy">     -0.49370095 </i>
    <i name="e_wo_entrp">     -0.49370095 </i>
    <i name="e_0_energy">     -0.49370095 </i>
   </energy>
  </scstep>
  <scstep>
   <time name="total">    1.74    1.25</time>
   <energy>
    <i name="e_fr_energy">     -0.49660350 </i>
    <i name="e_wo_entrp">     -0.49660350 </i>
    <i name="e_0_energy">     -0.49660350 </i>
   </energy>
  </scstep>
  <scstep>
   <time name="total">    1.91    1.30</time>
   <energy>
    <i name="e_fr_energy">     -0.49685392 </i>
    <i name="e_wo_entrp">     -0.49685392 </i>
    <i name="e_0_energy">     -0.49685392 </i>
   </energy>
  </scstep>
  <scstep>
   <time name="total">    1.77    1.28</time>
   <energy>
    <i name="e_fr_energy">     -0.49708619 </i>
    <i name="e_wo_entrp">     -0.49708619 </i>
    <i name="e_0_energy">     -0.49708619 </i>
   </energy>
  </scstep>
  <scstep>
   <time name="total">    1.78    1.29</time>
   <energy>
    <i name="e_fr_energy">     -0.49714604 </i>
    <i name="e_wo_entrp">     -0.49714604 </i>
    <i name="e_0_energy">     -0.49714604 </i>
   </energy>
  </scstep>
  <scstep>
   <time name="total">    1.79    1.31</time>
   <energy>
    <i name="e_fr_energy">     -0.49714255 </i>
    <i name="e_wo_entrp">     -0.49714255 </i>
    <i name="e_0_energy">     -0.49714255 </i>
   </energy>
  </scstep>
  <scstep>
   <time name="total">    1.80    1.32</time>
   <energy>
    <i name="e_fr_energy">     -0.49714339 </i>
    <i name="e_wo_entrp">     -0.49714339 </i>
    <i name="e_0_energy">     -0.49714339 </i>
   </energy>
  </scstep>
  <scstep>
   <time name="total">    1.77    1.28</time>
   <energy>
    <i name="e_fr_energy">     -0.49714337 </i>
    <i name="e_wo_entrp">     -0.49714337 </i>
    <i name="e_0_energy">     -0.49714337 </i>
   </energy>
  </scstep>
  <scstep>
   <time name="total">    1.77    1.28</time>
   <energy>
    <i name="e_fr_energy">     -0.49714337 </i>
    <i name="e_wo_entrp">     -0.49714337 </i>
    <i name="e_0_energy">     -0.49714337 </i>
   </energy>
  </scstep>
  <scstep>
   <time name="total">    1.81    1.32</time>
   <energy>
    <i name="e_fr_energy">     -0.49714335 </i>
    <i name="e_wo_entrp">     -0.49714335 </i>
    <i name="e_0_energy">     -0.49714335 </i>
   </energy>
  </scstep>
  <kpoints>
   <generation param="Gamma">
    <v type="int" name="divisions">       4        4        4 </v>
    <v name="usershift">      0.00000000       0.00000000       0.00000000 </v>
    <v name="genvec1">      0.25000000       0.00000000       0.00000000 </v>
    <v name="genvec2">      0.00000000       0.25000000       0.00000000 </v>
    <v name="genvec3">      0.00000000       0.00000000       0.25000000 </v>
    <v name="shift">      0.00000000       0.00000000       0.00000000 </v>
   </generation>
   <varray name="kpointlist" >
    <v>       0.00000000       0.00000000       0.00000000 </v>
    <v>       0.25000000       0.00000000       0.00000000 </v>
    <v>       0.00000000       0.25000000       0.00000000 </v>
    <v>      -0.25000000       0.25000000       0.00000000 </v>
    <v>       0.50000000       0.00000000       0.00000000 </v>
    <v>       0.00000000       0.50000000       0.00000000 </v>
    <v>       0.50000000       0.50000000       0.00000000 </v>
    <v>       0.25000000       0.25000000       0.00000000 </v>
    <v>      -0.25000000       0.50000000       0.00000000 </v>
    <v>       0.50000000       0.25000000       0.00000000 </v>
    <v>       0.00000000       0.00000000       0.25000000 </v>
    <v>       0.25000000       0.00000000       0.25000000 </v>
    <v>       0.00000000       0.25000000       0.25000000 </v>
    <v>      -0.25000000       0.25000000       0.25000000 </v>
    <v>      -0.25000000       0.00000000       0.25000000 </v>
    <v>       0.00000000      -0.25000000       0.25000000 </v>
    <v>       0.25000000      -0.25000000       0.25000000 </v>
    <v>       0.50000000       0.00000000       0.25000000 </v>
    <v>       0.00000000       0.50000000       0.25000000 </v>
    <v>       0.50000000       0.50000000       0.25000000 </v>
    <v>       0.25000000       0.25000000       0.25000000 </v>
    <v>      -0.25000000       0.50000000       0.25000000 </v>
    <v>       0.50000000       0.25000000       0.25000000 </v>
    <v>      -0.25000000      -0.25000000       0.25000000 </v>
    <v>       0.25000000       0.50000000       0.25000000 </v>
    <v>       0.50000000      -0.25000000       0.25000000 </v>
    <v>       0.00000000       0.00000000       0.50000000 </v>
    <v>       0.25000000       0.00000000       0.50000000 </v>
    <v>       0.00000000       0.25000000       0.50000000 </v>
    <v>      -0.25000000       0.25000000       0.50000000 </v>
    <v>       0.50000000       0.00000000       0.50000000 </v>
    <v>       0.00000000       0.50000000       0.50000000 </v>
    <v>       0.50000000       0.50000000       0.50000000 </v>
    <v>       0.25000000       0.25000000       0.50000000 </v>
    <v>      -0.25000000       0.50000000       0.50000000 </v>
    <v>       0.50000000       0.25000000       0.50000000 </v>
   </varray>
   <varray name="weights" >
    <v>       0.01562500 </v>
    <v>       0.03125000 </v>
    <v>       0.03125000 </v>
    <v>       0.03125000 </v>
    <v>       0.01562500 </v>
    <v>       0.01562500 </v>
    <v>       0.01562500 </v>
    <v>       0.03125000 </v>
    <v>       0.03125000 </v>
    <v>       0.03125000 </v>
    <v>       0.03125000 </v>
    <v>       0.03125000 </v>
    <v>       0.03125000 </v>
    <v>       0.03125000 </v>
    <v>       0.03125000 </v>
    <v>       0.03125000 </v>
    <v>       0.03125000 </v>
    <v>       0.03125000 </v>
    <v>       0.03125000 </v>
    <v>       0.03125000 </v>
    <v>       0.03125000 </v>
    <v>       0.03125000 </v>
    <v>       0.03125000 </v>
    <v>       0.03125000 </v>
    <v>       0.03125000 </v>
    <v>       0.03125000 </v>
    <v>       0.01562500 </v>
    <v>       0.03125000 </v>
    <v>       0.03125000 </v>
    <v>       0.03125000 </v>
    <v>       0.01562500 </v>
    <v>       0.01562500 </v>
    <v>       0.01562500 </v>
    <v>       0.03125000 </v>
    <v>       0.03125000 </v>
    <v>       0.03125000 </v>
   </varray>
  </kpoints>
  <scstep>
   <time name="total">    2.22    1.76</time>
   <energy>
    <i name="e_fr_energy">     -0.48315746 </i>
    <i name="e_wo_entrp">     -0.48315746 </i>
    <i name="e_0_energy">     -0.48315746 </i>
   </energy>
  </scstep>
  <scstep>
   <time name="total">    2.30    1.82</time>
   <energy>
    <i name="e_fr_energy">     -0.48531232 </i>
    <i name="e_wo_entrp">     -0.48531232 </i>
    <i name="e_0_energy">     -0.48531232 </i>
   </energy>
  </scstep>
  <scstep>
   <time name="total">    2.33    1.84</time>
   <energy>
    <i name="e_fr_energy">     -0.46527720 </i>
    <i name="e_wo_entrp">     -0.46527720 </i>
    <i name="e_0_energy">     -0.46527720 </i>
   </energy>
  </scstep>
  <scstep>
   <time name="total">    2.33    1.85</time>
   <energy>
    <i name="e_fr_energy">     -0.47613898 </i>
    <i name="e_wo_entrp">     -0.47613898 </i>
    <i name="e_0_energy">     -0.47613898 </i>
   </energy>
  </scstep>
  <scstep>
   <time name="total">    2.32    1.84</time>
   <energy>
    <i name="e_fr_energy">     -0.49388189 </i>
    <i name="e_wo_entrp">     -0.49388189 </i>
    <i name="e_0_energy">     -0.49388189 </i>
   </energy>
  </scstep>
  <scstep>
   <time name="total">    2.29    1.81</time>
   <energy>
    <i name="e_fr_energy">     -0.49679783 </i>
    <i name="e_wo_entrp">     -0.49679783 </i>
    <i name="e_0_energy">     -0.49679783 </i>
   </energy>
  </scstep>
  <scstep>
   <time name="total">    2.34    1.86</time>
   <energy>
    <i name="e_fr_energy">     -0.49703434 </i>
    <i name="e_wo_entrp">     -0.49703434 </i>
    <i name="e_0_energy">     -0.49703434 </i>
   </energy>
  </scstep>
  <scstep>
   <time name="total">    2.34    1.85</time>
   <energy>
    <i name="e_fr_energy">     -0.49726698 </i>
    <i name="e_wo_entrp">     -0.49726698 </i>
    <i name="e_0_energy">     -0.49726698 </i>
   </energy>
  </scstep>
  <scstep>
   <time name="total">    2.37    1.87</time>
   <energy>
    <i name="e_fr_energy">     -0.49733270 </i>
    <i name="e_wo_entrp">     -0.49733270 </i>
    <i name="e_0_energy">     -0.49733270 </i>
   </energy>
  </scstep>
  <scstep>
   <time name="total">    2.38    1.90</time>
   <energy>
    <i name="e_fr_energy">     -0.49732633 </i>
    <i name="e_wo_entrp">     -0.49732633 </i>
    <i name="e_0_energy">     -0.49732633 </i>
   </energy>
  </scstep>
  <scstep>
   <time name="total">    2.40    1.91</time>
   <energy>
    <i name="e_fr_energy">     -0.49733018 </i>
    <i name="e_wo_entrp">     -0.49733018 </i>
    <i name="e_0_energy">     -0.49733018 </i>
   </energy>
  </scstep>
  <scstep>
   <time name="total">    2.35    1.86</time>
   <energy>
    <i name="e_fr_energy">     -0.49732890 </i>
    <i name="e_wo_entrp">     -0.49732890 </i>
    <i name="e_0_energy">     -0.49732890 </i>
   </energy>
  </scstep>
  <scstep>
   <time name="total">    2.35    1.86</time>
   <energy>
    <i name="e_fr_energy">     -0.49732891 </i>
    <i name="e_wo_entrp">     -0.49732891 </i>
    <i name="e_0_energy">     -0.49732891 </i>
   </energy>
  </scstep>
  <scstep>
   <time name="total">    2.40    1.91</time>
   <energy>
    <i name="e_fr_energy">     -0.49732894 </i>
    <i name="e_wo_entrp">     -0.49732894 </i>
    <i name="e_0_energy">     -0.49732894 </i>
   </energy>
  </scstep>
  <kpoints>
   <generation param="Gamma">
    <v type="int" name="divisions">       4        4        4 </v>
    <v name="usershift">      0.00000000       0.00000000       0.00000000 </v>
    <v name="genvec1">      0.25000000       0.00000000       0.00000000 </v>
    <v name="genvec2">      0.00000000       0.25000000       0.00000000 </v>
    <v name="genvec3">      0.00000000       0.00000000       0.25000000 </v>
    <v name="shift">      0.00000000       0.00000000       0.00000000 </v>
   </generation>
   <varray name="kpointlist" >
    <v>       0.00000000       0.00000000       0.00000000 </v>
    <v>       0.25000000       0.00000000       0.00000000 </v>
    <v>       0.00000000       0.25000000       0.00000000 </v>
    <v>      -0.25000000       0.25000000       0.00000000 </v>
    <v>       0.50000000       0.00000000       0.00000000 </v>
    <v>       0.00000000       0.50000000       0.00000000 </v>
    <v>       0.50000000       0.50000000       0.00000000 </v>
    <v>       0.25000000       0.25000000       0.00000000 </v>
    <v>      -0.25000000       0.50000000       0.00000000 </v>
    <v>       0.50000000       0.25000000       0.00000000 </v>
    <v>       0.00000000       0.00000000       0.25000000 </v>
    <v>       0.25000000       0.00000000       0.25000000 </v>
    <v>       0.00000000       0.25000000       0.25000000 </v>
    <v>      -0.25000000       0.25000000       0.25000000 </v>
    <v>      -0.25000000       0.00000000       0.25000000 </v>
    <v>       0.00000000      -0.25000000       0.25000000 </v>
    <v>       0.25000000      -0.25000000       0.25000000 </v>
    <v>       0.50000000       0.00000000       0.25000000 </v>
    <v>       0.00000000       0.50000000       0.25000000 </v>
    <v>       0.50000000       0.50000000       0.25000000 </v>
    <v>       0.25000000       0.25000000       0.25000000 </v>
    <v>      -0.25000000       0.50000000       0.25000000 </v>
    <v>       0.50000000       0.25000000       0.25000000 </v>
    <v>      -0.25000000      -0.25000000       0.25000000 </v>
    <v>       0.25000000       0.50000000       0.25000000 </v>
    <v>       0.50000000      -0.25000000       0.25000000 </v>
    <v>       0.00000000       0.00000000       0.50000000 </v>
    <v>       0.25000000       0.00000000       0.50000000 </v>
    <v>       0.00000000       0.25000000       0.50000000 </v>
    <v>      -0.25000000       0.25000000       0.50000000 </v>
    <v>       0.50000000       0.00000000       0.50000000 </v>
    <v>       0.00000000       0.50000000       0.50000000 </v>
    <v>       0.50000000       0.50000000       0.50000000 </v>
    <v>       0.25000000       0.25000000       0.50000000 </v>
    <v>      -0.25000000       0.50000000       0.50000000 </v>
    <v>       0.50000000       0.25000000       0.50000000 </v>
   </varray>
   <varray name="weights" >
    <v>       0.01562500 </v>
    <v>       0.03125000 </v>
    <v>       0.03125000 </v>
    <v>       0.03125000 </v>
    <v>       0.01562500 </v>
    <v>       0.01562500 </v>
    <v>       0.01562500 </v>
    <v>       0.03125000 </v>
    <v>       0.03125000 </v>
    <v>       0.03125000 </v>
    <v>       0.03125000 </v>
    <v>       0.03125000 </v>
    <v>       0.03125000 </v>
    <v>       0.03125000 </v>
    <v>       0.03125000 </v>
    <v>       0.03125000 </v>
    <v>       0.03125000 </v>
    <v>       0.03125000 </v>
    <v>       0.03125000 </v>
    <v>       0.03125000 </v>
    <v>       0.03125000 </v>
    <v>       0.03125000 </v>
    <v>       0.03125000 </v>
    <v>       0.03125000 </v>
    <v>       0.03125000 </v>
    <v>       0.03125000 </v>
    <v>       0.01562500 </v>
    <v>       0.03125000 </v>
    <v>       0.03125000 </v>
    <v>       0.03125000 </v>
    <v>       0.01562500 </v>
    <v>       0.01562500 </v>
    <v>       0.01562500 </v>
    <v>       0.03125000 </v>
    <v>       0.03125000 </v>
    <v>       0.03125000 </v>
   </varray>
  </kpoints>
  <scstep>
   <time name="total">    2.22    1.75</time>
   <energy>
    <i name="e_fr_energy">     -0.48761000 </i>
    <i name="e_wo_entrp">     -0.48761000 </i>
    <i name="e_0_energy">     -0.48761000 </i>
   </energy>
  </scstep>
  <scstep>
   <time name="total">    2.29    1.81</time>
   <energy>
    <i name="e_fr_energy">     -0.48965560 </i>
    <i name="e_wo_entrp">     -0.48965560 </i>
    <i name="e_0_energy">     -0.48965560 </i>
   </energy>
  </scstep>
  <scstep>
   <time name="total">    2.30    1.82</time>
   <energy>
    <i name="e_fr_energy">     -0.47439479 </i>
    <i name="e_wo_entrp">     -0.47439479 </i>
    <i name="e_0_energy">     -0.47439479 </i>
   </energy>
  </scstep>
  <scstep>
   <time name="total">    2.31    1.83</time>
   <energy>
    <i name="e_fr_energy">     -0.48763508 </i>
    <i name="e_wo_entrp">     -0.48763508 </i>
    <i name="e_0_energy">     -0.48763508 </i>
   </energy>
  </scstep>
  <scstep>
   <time name="total">    2.32    1.84</time>
   <energy>
    <i name="e_fr_energy">     -0.50387837 </i>
    <i name="e_wo_entrp">     -0.50387837 </i>
    <i name="e_0_energy">     -0.50387837 </i>
   </energy>
  </scstep>
  <scstep>
   <time name="total">    2.27    1.79</time>
   <energy>
    <i name="e_fr_energy">     -0.50671619 </i>
    <i name="e_wo_entrp">     -0.50671619 </i>
    <i name="e_0_energy">     -0.50671619 </i>
   </energy>
  </scstep>
  <scstep>
   <time name="total">    2.33    1.85</time>
   <energy>
    <i name="e_fr_energy">     -0.50696090 </i>
    <i name="e_wo_entrp">     -0.50696090 </i>
    <i name="e_0_energy">     -0.50696090 </i>
   </energy>
  </scstep>
  <scstep>
   <time name="total">    2.33    1.84</time>
   <energy>
    <i name="e_fr_energy">     -0.50722653 </i>
    <i name="e_wo_entrp">     -0.50722653 </i>
    <i name="e_0_energy">     -0.50722653 </i>
   </energy>
  </scstep>
  <scstep>
   <time name="total">    2.34    1.86</time>
   <energy>
    <i name="e_fr_energy">     -0.50724891 </i>
    <i name="e_wo_entrp">     -0.50724891 </i>
    <i name="e_0_energy">     -0.50724891 </i>
   </energy>
  </scstep>
  <scstep>
   <time name="total">    2.38    1.90</time>
   <energy>
    <i name="e_fr_energy">     -0.50725014 </i>
    <i name="e_wo_entrp">     -0.50725014 </i>
    <i name="e_0_energy">     -0.50725014 </i>
   </energy>
  </scstep>
  <scstep>
   <time name="total">    2.39    1.90</time>
   <energy>
    <i name="e_fr_energy">     -0.50724935 </i>
    <i name="e_wo_entrp">     -0.50724935 </i>
    <i name="e_0_energy">     -0.50724935 </i>
   </energy>
  </scstep>
  <scstep>
   <time name="total">    2.31    1.83</time>
   <energy>
    <i name="e_fr_energy">     -0.50724952 </i>
    <i name="e_wo_entrp">     -0.50724952 </i>
    <i name="e_0_energy">     -0.50724952 </i>
   </energy>
  </scstep>
  <scstep>
   <time name="total">    2.37    1.88</time>
   <energy>
    <i name="e_fr_energy">     -0.50724952 </i>
    <i name="e_wo_entrp">     -0.50724952 </i>
    <i name="e_0_energy">     -0.50724952 </i>
   </energy>
  </scstep>
  <scstep>
   <time name="total">    2.35    1.87</time>
   <energy>
    <i name="e_fr_energy">     -0.50724950 </i>
    <i name="e_wo_entrp">     -0.50724950 </i>
    <i name="e_0_energy">     -0.50724950 </i>
   </energy>
  </scstep>
  <kpoints>
   <generation param="Gamma">
    <v type="int" name="divisions">       4        4        4 </v>
    <v name="usershift">      0.00000000       0.00000000       0.00000000 </v>
    <v name="genvec1">      0.25000000       0.00000000       0.00000000 </v>
    <v name="genvec2">      0.00000000       0.25000000       0.00000000 </v>
    <v name="genvec3">      0.00000000       0.00000000       0.25000000 </v>
    <v name="shift">      0.00000000       0.00000000       0.00000000 </v>
   </generation>
   <varray name="kpointlist" >
    <v>       0.00000000       0.00000000       0.00000000 </v>
    <v>       0.25000000       0.00000000       0.00000000 </v>
    <v>       0.00000000       0.25000000       0.00000000 </v>
    <v>       0.50000000       0.00000000       0.00000000 </v>
    <v>       0.00000000       0.50000000       0.00000000 </v>
    <v>       0.25000000       0.25000000       0.00000000 </v>
    <v>       0.50000000       0.25000000       0.00000000 </v>
    <v>       0.00000000       0.00000000       0.25000000 </v>
    <v>       0.25000000       0.00000000       0.25000000 </v>
    <v>       0.00000000       0.25000000       0.25000000 </v>
    <v>      -0.25000000       0.00000000       0.25000000 </v>
    <v>       0.00000000      -0.25000000       0.25000000 </v>
    <v>       0.50000000       0.00000000       0.25000000 </v>
    <v>       0.00000000       0.50000000       0.25000000 </v>
    <v>       0.25000000       0.25000000       0.25000000 </v>
    <v>       0.50000000       0.25000000       0.25000000 </v>
    <v>      -0.25000000      -0.25000000       0.25000000 </v>
    <v>       0.00000000       0.00000000       0.50000000 </v>
    <v>       0.25000000       0.00000000       0.50000000 </v>
    <v>       0.00000000       0.25000000       0.50000000 </v>
    <v>       0.50000000       0.00000000       0.50000000 </v>
    <v>       0.00000000       0.50000000       0.50000000 </v>
    <v>       0.25000000       0.25000000       0.50000000 </v>
    <v>       0.50000000       0.25000000       0.50000000 </v>
   </varray>
   <varray name="weights" >
    <v>       0.01562500 </v>
    <v>       0.06250000 </v>
    <v>       0.03125000 </v>
    <v>       0.03125000 </v>
    <v>       0.01562500 </v>
    <v>       0.06250000 </v>
    <v>       0.03125000 </v>
    <v>       0.03125000 </v>
    <v>       0.06250000 </v>
    <v>       0.03125000 </v>
    <v>       0.06250000 </v>
    <v>       0.03125000 </v>
    <v>       0.06250000 </v>
    <v>       0.03125000 </v>
    <v>       0.06250000 </v>
    <v>       0.06250000 </v>
    <v>       0.06250000 </v>
    <v>       0.01562500 </v>
    <v>       0.06250000 </v>
    <v>       0.03125000 </v>
    <v>       0.03125000 </v>
    <v>       0.01562500 </v>
    <v>       0.06250000 </v>
    <v>       0.03125000 </v>
   </varray>
  </kpoints>
  <varray name="dielectric_dft" >
   <v>       2.48095211       0.00000000      -0.00000000 </v>
   <v>       0.00000000       2.48068905      -0.00001674 </v>
   <v>       0.00000000      -0.00001831       2.51334295 </v>
  </varray>
  <varray name="epsilon" >
   <v>       2.48095211       0.00000000      -0.00000000 </v>
   <v>       0.00000000       2.48068905      -0.00001674 </v>
   <v>       0.00000000      -0.00001831       2.51334295 </v>
  </varray>
  <kpoints>
   <generation param="Gamma">
    <v type="int" name="divisions">       4        4        4 </v>
    <v name="usershift">      0.00000000       0.00000000       0.00000000 </v>
    <v name="genvec1">      0.25000000       0.00000000       0.00000000 </v>
    <v name="genvec2">      0.00000000       0.25000000       0.00000000 </v>
    <v name="genvec3">      0.00000000       0.00000000       0.25000000 </v>
    <v name="shift">      0.00000000       0.00000000       0.00000000 </v>
   </generation>
   <varray name="kpointlist" >
    <v>       0.00000000       0.00000000       0.00000000 </v>
    <v>       0.25000000       0.00000000       0.00000000 </v>
    <v>       0.00000000       0.25000000       0.00000000 </v>
    <v>       0.50000000       0.00000000       0.00000000 </v>
    <v>       0.00000000       0.50000000       0.00000000 </v>
    <v>       0.25000000       0.25000000       0.00000000 </v>
    <v>       0.50000000       0.25000000       0.00000000 </v>
    <v>       0.00000000       0.00000000       0.25000000 </v>
    <v>       0.25000000       0.00000000       0.25000000 </v>
    <v>       0.00000000       0.25000000       0.25000000 </v>
    <v>      -0.25000000       0.00000000       0.25000000 </v>
    <v>       0.00000000      -0.25000000       0.25000000 </v>
    <v>       0.50000000       0.00000000       0.25000000 </v>
    <v>       0.00000000       0.50000000       0.25000000 </v>
    <v>       0.25000000       0.25000000       0.25000000 </v>
    <v>       0.50000000       0.25000000       0.25000000 </v>
    <v>      -0.25000000      -0.25000000       0.25000000 </v>
    <v>       0.00000000       0.00000000       0.50000000 </v>
    <v>       0.25000000       0.00000000       0.50000000 </v>
    <v>       0.00000000       0.25000000       0.50000000 </v>
    <v>       0.50000000       0.00000000       0.50000000 </v>
    <v>       0.00000000       0.50000000       0.50000000 </v>
    <v>       0.25000000       0.25000000       0.50000000 </v>
    <v>       0.50000000       0.25000000       0.50000000 </v>
   </varray>
   <varray name="weights" >
    <v>       0.01562500 </v>
    <v>       0.06250000 </v>
    <v>       0.03125000 </v>
    <v>       0.03125000 </v>
    <v>       0.01562500 </v>
    <v>       0.06250000 </v>
    <v>       0.03125000 </v>
    <v>       0.03125000 </v>
    <v>       0.06250000 </v>
    <v>       0.03125000 </v>
    <v>       0.06250000 </v>
    <v>       0.03125000 </v>
    <v>       0.06250000 </v>
    <v>       0.03125000 </v>
    <v>       0.06250000 </v>
    <v>       0.06250000 </v>
    <v>       0.06250000 </v>
    <v>       0.01562500 </v>
    <v>       0.06250000 </v>
    <v>       0.03125000 </v>
    <v>       0.03125000 </v>
    <v>       0.01562500 </v>
    <v>       0.06250000 </v>
    <v>       0.03125000 </v>
   </varray>
  </kpoints>
  <array name="born_charges" >
   <dimension dim="1">ion</dimension>
   <set>
    <v>       2.98073391       0.00000000      -0.00000000 </v>
    <v>       0.00000000       3.62102602      -0.32223237 </v>
    <v>       0.00000000       0.27738217       3.42406214 </v>
   </set>
   <set>
    <v>       3.46081190       0.27658850       0.27798904 </v>
    <v>       0.27688892       3.13990624       0.16034133 </v>
    <v>      -0.24079367      -0.13964899       3.42600873 </v>
   </set>
   <set>
    <v>       3.46081190      -0.27658850      -0.27798904 </v>
    <v>      -0.27688892       3.13990624       0.16034133 </v>
    <v>       0.24079367      -0.13964899       3.42600873 </v>
   </set>
   <set>
    <v>      -1.31085037      -0.49303769      -0.30982333 </v>
    <v>      -0.43538282      -1.98869374      -0.67834716 </v>
    <v>      -0.24305780      -0.72084516      -1.71207572 </v>
   </set>
   <set>
    <v>      -2.22248412      -0.08930686       0.74372087 </v>
    <v>      -0.03268360      -1.07805784       0.07093401 </v>
    <v>       0.74677094       0.14984521      -1.71331015 </v>
   </set>
   <set>
    <v>      -1.41784437       0.49784897      -0.43293863 </v>
    <v>       0.55511312      -1.88366768       0.60818801 </v>
    <v>      -0.50336983       0.57195784      -1.71265394 </v>
   </set>
   <set>
    <v>      -1.31085037       0.49303769       0.30982333 </v>
    <v>       0.43538282      -1.98869374      -0.67834716 </v>
    <v>       0.24305780      -0.72084516      -1.71207572 </v>
   </set>
   <set>
    <v>      -2.22248412       0.08930686      -0.74372087 </v>
    <v>       0.03268360      -1.07805784       0.07093401 </v>
    <v>      -0.74677094       0.14984521      -1.71331015 </v>
   </set>
   <set>
    <v>      -1.41784437      -0.49784897       0.43293863 </v>
    <v>      -0.55511312      -1.88366768       0.60818801 </v>
    <v>       0.50336983       0.57195784      -1.71265394 </v>
   </set>
  </array>
  <time name="totalsc">  314.61  184.71</time>
  <eigenvalues>
   <array>
    <dimension dim="1">band</dimension>
    <dimension dim="2">kpoint</dimension>
    <dimension dim="3">spin</dimension>
    <field>eigene</field>
    <field>occ</field>
    <set>
     <set comment="spin 1">
      <set comment="kpoint 1">
       <r>  -18.1719    1.0000 </r>
       <r>  -16.6203    1.0000 </r>
       <r>  -16.6199    1.0000 </r>
       <r>  -15.9517    1.0000 </r>
       <r>  -15.9425    1.0000 </r>
       <r>  -15.9421    1.0000 </r>
       <r>   -6.8795    1.0000 </r>
       <r>   -6.8784    1.0000 </r>
       <r>   -4.1465    1.0000 </r>
       <r>   -4.0639    1.0000 </r>
       <r>   -3.9116    1.0000 </r>
       <r>   -3.9108    1.0000 </r>
       <r>   -1.6865    1.0000 </r>
       <r>   -1.6848    1.0000 </r>
       <r>   -1.3748    1.0000 </r>
       <r>   -1.1506    1.0000 </r>
       <r>   -0.1557    1.0000 </r>
       <r>   -0.1552    1.0000 </r>
       <r>   -0.0980    1.0000 </r>
       <r>    0.2605    1.0000 </r>
       <r>    0.2621    1.0000 </r>
       <r>    0.4586    1.0000 </r>
       <r>    1.0037    1.0000 </r>
       <r>    1.0047    1.0000 </r>
       <r>    7.3235    0.0000 </r>
       <r>   10.6064    0.0000 </r>
       <r>   10.6107    0.0000 </r>
       <r>   11.2363    0.0000 </r>
       <r>   11.2370    0.0000 </r>
      </set>
      <set comment="kpoint 2">
       <r>  -17.9880    1.0000 </r>
       <r>  -16.8198    1.0000 </r>
       <r>  -16.5935    1.0000 </r>
       <r>  -16.0182    1.0000 </r>
       <r>  -15.9760    1.0000 </r>
       <r>  -15.9427    1.0000 </r>
       <r>   -6.9569    1.0000 </r>
       <r>   -6.5092    1.0000 </r>
       <r>   -4.2173    1.0000 </r>
       <r>   -4.1541    1.0000 </r>
       <r>   -4.0325    1.0000 </r>
       <r>   -3.6197    1.0000 </r>
       <r>   -1.8730    1.0000 </r>
       <r>   -1.5564    1.0000 </r>
       <r>   -1.3473    1.0000 </r>
       <r>   -0.8968    1.0000 </r>
       <r>   -0.6972    1.0000 </r>
       <r>   -0.2387    1.0000 </r>
       <r>   -0.1602    1.0000 </r>
       <r>    0.1784    1.0000 </r>
       <r>    0.2764    1.0000 </r>
       <r>    0.4214    1.0000 </r>
       <r>    1.0538    1.0000 </r>
       <r>    1.1415    1.0000 </r>
       <r>    8.2331    0.0000 </r>
       <r>   10.6687    0.0000 </r>
       <r>   10.7208    0.0000 </r>
       <r>   11.2075    0.0000 </r>
       <r>   11.4829    0.0000 </r>
      </set>
      <set comment="kpoint 3">
       <r>  -17.9879    1.0000 </r>
       <r>  -16.8196    1.0000 </r>
       <r>  -16.5940    1.0000 </r>
       <r>  -16.0202    1.0000 </r>
       <r>  -15.9750    1.0000 </r>
       <r>  -15.9413    1.0000 </r>
       <r>   -6.9570    1.0000 </r>
       <r>   -6.5092    1.0000 </r>
       <r>   -4.2182    1.0000 </r>
       <r>   -4.1544    1.0000 </r>
       <r>   -4.0329    1.0000 </r>
       <r>   -3.6173    1.0000 </r>
       <r>   -1.8726    1.0000 </r>
       <r>   -1.5573    1.0000 </r>
       <r>   -1.3486    1.0000 </r>
       <r>   -0.8970    1.0000 </r>
       <r>   -0.6972    1.0000 </r>
       <r>   -0.2402    1.0000 </r>
       <r>   -0.1597    1.0000 </r>
       <r>    0.1811    1.0000 </r>
       <r>    0.2779    1.0000 </r>
       <r>    0.4202    1.0000 </r>
       <r>    1.0530    1.0000 </r>
       <r>    1.1418    1.0000 </r>
       <r>    8.2328    0.0000 </r>
       <r>   10.6715    0.0000 </r>
       <r>   10.7185    0.0000 </r>
       <r>   11.2068    0.0000 </r>
       <r>   11.4824    0.0000 </r>
      </set>
      <set comment="kpoint 4">
       <r>  -17.6651    1.0000 </r>
       <r>  -17.1820    1.0000 </r>
       <r>  -16.5643    1.0000 </r>
       <r>  -16.0443    1.0000 </r>
       <r>  -16.0015    1.0000 </r>
       <r>  -15.9685    1.0000 </r>
       <r>   -7.0303    1.0000 </r>
       <r>   -6.0446    1.0000 </r>
       <r>   -4.5552    1.0000 </r>
       <r>   -4.0955    1.0000 </r>
       <r>   -4.0895    1.0000 </r>
       <r>   -3.2831    1.0000 </r>
       <r>   -1.8236    1.0000 </r>
       <r>   -1.6231    1.0000 </r>
       <r>   -1.4341    1.0000 </r>
       <r>   -1.0009    1.0000 </r>
       <r>   -0.7914    1.0000 </r>
       <r>   -0.4801    1.0000 </r>
       <r>   -0.2876    1.0000 </r>
       <r>    0.1944    1.0000 </r>
       <r>    0.2812    1.0000 </r>
       <r>    0.5603    1.0000 </r>
       <r>    1.0150    1.0000 </r>
       <r>    1.2411    1.0000 </r>
       <r>    9.6360    0.0000 </r>
       <r>   10.3720    0.0000 </r>
       <r>   10.9650    0.0000 </r>
       <r>   10.9895    0.0000 </r>
       <r>   11.9976    0.0000 </r>
      </set>
      <set comment="kpoint 5">
       <r>  -17.6647    1.0000 </r>
       <r>  -17.1820    1.0000 </r>
       <r>  -16.5658    1.0000 </r>
       <r>  -16.0468    1.0000 </r>
       <r>  -15.9992    1.0000 </r>
       <r>  -15.9671    1.0000 </r>
       <r>   -7.0311    1.0000 </r>
       <r>   -6.0426    1.0000 </r>
       <r>   -4.5580    1.0000 </r>
       <r>   -4.0971    1.0000 </r>
       <r>   -4.0887    1.0000 </r>
       <r>   -3.2791    1.0000 </r>
       <r>   -1.8243    1.0000 </r>
       <r>   -1.6218    1.0000 </r>
       <r>   -1.4364    1.0000 </r>
       <r>   -1.0017    1.0000 </r>
       <r>   -0.7944    1.0000 </r>
       <r>   -0.4783    1.0000 </r>
       <r>   -0.2882    1.0000 </r>
[...]
       <r>    1.1193    1.0000 </r>
       <r>   10.2273    0.0000 </r>
       <r>   10.7259    0.0000 </r>
       <r>   11.0137    0.0000 </r>
       <r>   11.1994    0.0000 </r>
       <r>   11.5405    0.0000 </r>
      </set>
      <set comment="kpoint 22">
       <r>  -17.5866    1.0000 </r>
       <r>  -17.1417    1.0000 </r>
       <r>  -16.7064    1.0000 </r>
       <r>  -16.0724    1.0000 </r>
       <r>  -15.9940    1.0000 </r>
       <r>  -15.9582    1.0000 </r>
       <r>   -6.8767    1.0000 </r>
       <r>   -5.9132    1.0000 </r>
       <r>   -5.0491    1.0000 </r>
       <r>   -3.9968    1.0000 </r>
       <r>   -3.7025    1.0000 </r>
       <r>   -3.6161    1.0000 </r>
       <r>   -1.9303    1.0000 </r>
       <r>   -1.9226    1.0000 </r>
       <r>   -1.1465    1.0000 </r>
       <r>   -0.8289    1.0000 </r>
       <r>   -0.7467    1.0000 </r>
       <r>   -0.2743    1.0000 </r>
       <r>    0.0218    1.0000 </r>
       <r>    0.1889    1.0000 </r>
       <r>    0.3965    1.0000 </r>
       <r>    0.4056    1.0000 </r>
       <r>    0.6995    1.0000 </r>
       <r>    1.1198    1.0000 </r>
       <r>   10.2273    0.0000 </r>
       <r>   10.7237    0.0000 </r>
       <r>   11.0161    0.0000 </r>
       <r>   11.2019    0.0000 </r>
       <r>   11.5355    0.0000 </r>
      </set>
      <set comment="kpoint 23">
       <r>  -17.5750    1.0000 </r>
       <r>  -17.1862    1.0000 </r>
       <r>  -16.6526    1.0000 </r>
       <r>  -16.0614    1.0000 </r>
       <r>  -15.9933    1.0000 </r>
       <r>  -15.9922    1.0000 </r>
       <r>   -6.8566    1.0000 </r>
       <r>   -5.8703    1.0000 </r>
       <r>   -5.1562    1.0000 </r>
       <r>   -3.8974    1.0000 </r>
       <r>   -3.7947    1.0000 </r>
       <r>   -3.6158    1.0000 </r>
       <r>   -1.9737    1.0000 </r>
       <r>   -1.7466    1.0000 </r>
       <r>   -1.2655    1.0000 </r>
       <r>   -0.9004    1.0000 </r>
       <r>   -0.6224    1.0000 </r>
       <r>   -0.4223    1.0000 </r>
       <r>    0.1494    1.0000 </r>
       <r>    0.2551    1.0000 </r>
       <r>    0.3284    1.0000 </r>
       <r>    0.5720    1.0000 </r>
       <r>    0.7170    1.0000 </r>
       <r>    0.9237    1.0000 </r>
       <r>   10.1764    0.0000 </r>
       <r>   10.6514    0.0000 </r>
       <r>   10.9652    0.0000 </r>
       <r>   11.3041    0.0000 </r>
       <r>   11.7225    0.0000 </r>
      </set>
      <set comment="kpoint 24">
       <r>  -17.5757    1.0000 </r>
       <r>  -17.1855    1.0000 </r>
       <r>  -16.6519    1.0000 </r>
       <r>  -16.0624    1.0000 </r>
       <r>  -15.9933    1.0000 </r>
       <r>  -15.9920    1.0000 </r>
       <r>   -6.8566    1.0000 </r>
       <r>   -5.8696    1.0000 </r>
       <r>   -5.1561    1.0000 </r>
       <r>   -3.8986    1.0000 </r>
       <r>   -3.7957    1.0000 </r>
       <r>   -3.6149    1.0000 </r>
       <r>   -1.9743    1.0000 </r>
       <r>   -1.7475    1.0000 </r>
       <r>   -1.2631    1.0000 </r>
       <r>   -0.9002    1.0000 </r>
       <r>   -0.6224    1.0000 </r>
       <r>   -0.4220    1.0000 </r>
       <r>    0.1492    1.0000 </r>
       <r>    0.2569    1.0000 </r>
       <r>    0.3285    1.0000 </r>
       <r>    0.5697    1.0000 </r>
       <r>    0.7154    1.0000 </r>
       <r>    0.9250    1.0000 </r>
       <r>   10.1783    0.0000 </r>
       <r>   10.6501    0.0000 </r>
       <r>   10.9594    0.0000 </r>
       <r>   11.3065    0.0000 </r>
       <r>   11.7234    0.0000 </r>
      </set>
     </set>
    </set>
   </array>
  </eigenvalues>
  <separator name="orbital magnetization" >
   <v name="MAGDIPOLOUT">      0.00000000      0.00000000      0.00000000</v>
  </separator>
  <dos>
   <i name="efermi">      1.78546666 </i>
   <total>
    <array>
     <dimension dim="1">gridpoints</dimension>
     <dimension dim="2">spin</dimension>
     <field>energy</field>
     <field>total</field>
     <field>integrated</field>
     <set>
      <set comment="spin 1">
       <r>   -19.6806     0.0000     0.0000 </r>
       <r>   -19.5699     0.0000     0.0000 </r>
       <r>   -19.4593     0.0000     0.0000 </r>
       <r>   -19.3487     0.0000     0.0000 </r>
       <r>   -19.2380     0.0000     0.0000 </r>
       <r>   -19.1274     0.0000     0.0000 </r>
       <r>   -19.0168     0.0000     0.0000 </r>
       <r>   -18.9061     0.0000     0.0000 </r>
       <r>   -18.7955     0.0000     0.0000 </r>
       <r>   -18.6849     0.0000     0.0000 </r>
       <r>   -18.5742     0.0000     0.0000 </r>
       <r>   -18.4636     0.0000     0.0000 </r>
       <r>   -18.3530     0.0015     0.0002 </r>
       <r>   -18.2423     0.0455     0.0052 </r>
       <r>   -18.1317     0.2561     0.0335 </r>
       <r>   -18.0211     0.9593     0.1397 </r>
       <r>   -17.9105     2.1806     0.3809 </r>
       <r>   -17.7998     2.2489     0.6297 </r>
       <r>   -17.6892     3.1566     0.9789 </r>
       <r>   -17.5786     6.7082     1.7211 </r>
       <r>   -17.4679     3.7409     2.1349 </r>
       <r>   -17.3573     0.7673     2.2198 </r>
       <r>   -17.2467     1.6688     2.4044 </r>
       <r>   -17.1360     7.3351     3.2159 </r>
       <r>   -17.0254     4.6986     3.7357 </r>
       <r>   -16.9148     0.5603     3.7977 </r>
       <r>   -16.8041     0.9825     3.9064 </r>
       <r>   -16.6935     2.7481     4.2105 </r>
       <r>   -16.5829     6.4606     4.9252 </r>
       <r>   -16.4722     3.7445     5.3395 </r>
       <r>   -16.3616     1.9951     5.5602 </r>
       <r>   -16.2510     2.2035     5.8040 </r>
       <r>   -16.1403     3.0195     6.1380 </r>
       <r>   -16.0297    16.1210     7.9215 </r>
       <r>   -15.9191    27.1165    10.9215 </r>
       <r>   -15.8084     9.2149    11.9409 </r>
       <r>   -15.6978     0.5298    11.9995 </r>
       <r>   -15.5872     0.0041    12.0000 </r>
       <r>   -15.4766     0.0000    12.0000 </r>
       <r>   -15.3659     0.0000    12.0000 </r>
       <r>   -15.2553     0.0000    12.0000 </r>
       <r>   -15.1447     0.0000    12.0000 </r>
       <r>   -15.0340     0.0000    12.0000 </r>
       <r>   -14.9234     0.0000    12.0000 </r>
       <r>   -14.8128     0.0000    12.0000 </r>
       <r>   -14.7021     0.0000    12.0000 </r>
       <r>   -14.5915     0.0000    12.0000 </r>
       <r>   -14.4809     0.0000    12.0000 </r>
       <r>   -14.3702     0.0000    12.0000 </r>
       <r>   -14.2596     0.0000    12.0000 </r>
       <r>   -14.1490     0.0000    12.0000 </r>
       <r>   -14.0383     0.0000    12.0000 </r>
       <r>   -13.9277     0.0000    12.0000 </r>
       <r>   -13.8171     0.0000    12.0000 </r>
       <r>   -13.7064     0.0000    12.0000 </r>
       <r>   -13.5958     0.0000    12.0000 </r>
       <r>   -13.4852     0.0000    12.0000 </r>
       <r>   -13.3745     0.0000    12.0000 </r>
       <r>   -13.2639     0.0000    12.0000 </r>
       <r>   -13.1533     0.0000    12.0000 </r>
       <r>   -13.0427     0.0000    12.0000 </r>
       <r>   -12.9320     0.0000    12.0000 </r>
       <r>   -12.8214     0.0000    12.0000 </r>
       <r>   -12.7108     0.0000    12.0000 </r>
       <r>   -12.6001     0.0000    12.0000 </r>
       <r>   -12.4895     0.0000    12.0000 </r>
       <r>   -12.3789     0.0000    12.0000 </r>
       <r>   -12.2682     0.0000    12.0000 </r>
       <r>   -12.1576     0.0000    12.0000 </r>
       <r>   -12.0470     0.0000    12.0000 </r>
       <r>   -11.9363     0.0000    12.0000 </r>
       <r>   -11.8257     0.0000    12.0000 </r>
       <r>   -11.7151     0.0000    12.0000 </r>
       <r>   -11.6044     0.0000    12.0000 </r>
       <r>   -11.4938     0.0000    12.0000 </r>
       <r>   -11.3832     0.0000    12.0000 </r>
       <r>   -11.2725     0.0000    12.0000 </r>
       <r>   -11.1619     0.0000    12.0000 </r>
       <r>   -11.0513     0.0000    12.0000 </r>
       <r>   -10.9406     0.0000    12.0000 </r>
       <r>   -10.8300     0.0000    12.0000 </r>
       <r>   -10.7194     0.0000    12.0000 </r>
       <r>   -10.6088     0.0000    12.0000 </r>
       <r>   -10.4981     0.0000    12.0000 </r>
       <r>   -10.3875     0.0000    12.0000 </r>
       <r>   -10.2769     0.0000    12.0000 </r>
       <r>   -10.1662     0.0000    12.0000 </r>
       <r>   -10.0556     0.0000    12.0000 </r>
       <r>    -9.9450     0.0000    12.0000 </r>
       <r>    -9.8343     0.0000    12.0000 </r>
       <r>    -9.7237     0.0000    12.0000 </r>
       <r>    -9.6131     0.0000    12.0000 </r>
       <r>    -9.5024     0.0000    12.0000 </r>
       <r>    -9.3918     0.0000    12.0000 </r>
       <r>    -9.2812     0.0000    12.0000 </r>
       <r>    -9.1705     0.0000    12.0000 </r>
       <r>    -9.0599     0.0000    12.0000 </r>
       <r>    -8.9493     0.0000    12.0000 </r>
       <r>    -8.8386     0.0000    12.0000 </r>
       <r>    -8.7280     0.0000    12.0000 </r>
       <r>    -8.6174     0.0000    12.0000 </r>
       <r>    -8.5067     0.0000    12.0000 </r>
       <r>    -8.3961     0.0000    12.0000 </r>
       <r>    -8.2855     0.0000    12.0000 </r>
       <r>    -8.1749     0.0001    12.0000 </r>
       <r>    -8.0642     0.0119    12.0013 </r>
       <r>    -7.9536     0.1118    12.0137 </r>
       <r>    -7.8430     0.1382    12.0290 </r>
       <r>    -7.7323     0.0946    12.0395 </r>
       <r>    -7.6217     0.4197    12.0859 </r>
       <r>    -7.5111     0.9779    12.1941 </r>
       <r>    -7.4004     1.2338    12.3306 </r>
       <r>    -7.2898     1.9630    12.5477 </r>
       <r>    -7.1792     1.0206    12.6606 </r>
       <r>    -7.0685     1.4063    12.8162 </r>
       <r>    -6.9579     4.6409    13.3297 </r>
       <r>    -6.8473     4.7315    13.8531 </r>
       <r>    -6.7366     1.4968    14.0187 </r>
       <r>    -6.6260     0.1957    14.0404 </r>
       <r>    -6.5154     0.7061    14.1185 </r>
       <r>    -6.4047     0.7881    14.2057 </r>
       <r>    -6.2941     0.1165    14.2185 </r>
       <r>    -6.1835     0.0265    14.2215 </r>
       <r>    -6.0728     0.5350    14.2807 </r>
       <r>    -5.9622     3.4549    14.6629 </r>
       <r>    -5.8516     6.9580    15.4327 </r>
       <r>    -5.7410     2.9510    15.7591 </r>
       <r>    -5.6303     0.1983    15.7811 </r>
       <r>    -5.5197     0.0180    15.7831 </r>
       <r>    -5.4091     0.3555    15.8224 </r>
       <r>    -5.2984     0.9967    15.9327 </r>
       <r>    -5.1878     0.9284    16.0354 </r>
       <r>    -5.0772     2.2073    16.2796 </r>
       <r>    -4.9665     3.8995    16.7110 </r>
       <r>    -4.8559     2.9684    17.0394 </r>
       <r>    -4.7453     1.8687    17.2461 </r>
       <r>    -4.6346     1.8077    17.4461 </r>
       <r>    -4.5240     1.9880    17.6660 </r>
       <r>    -4.4134     0.6162    17.7342 </r>
       <r>    -4.3027     0.7544    17.8177 </r>
       <r>    -4.1921     3.1138    18.1622 </r>
       <r>    -4.0815     8.9000    19.1468 </r>
       <r>    -3.9708     9.6606    20.2155 </r>
       <r>    -3.8602     6.6504    20.9513 </r>
       <r>    -3.7496     6.7667    21.6999 </r>
       <r>    -3.6389     5.6584    22.3259 </r>
       <r>    -3.5283     5.6949    22.9559 </r>
       <r>    -3.4177     5.0791    23.5179 </r>
       <r>    -3.3071     2.6539    23.8115 </r>
       <r>    -3.1964     1.4448    23.9713 </r>
       <r>    -3.0858     0.2536    23.9994 </r>
       <r>    -2.9752     0.0057    24.0000 </r>
       <r>    -2.8645     0.0000    24.0000 </r>
       <r>    -2.7539     0.0000    24.0000 </r>
       <r>    -2.6433     0.0000    24.0000 </r>
       <r>    -2.5326     0.0000    24.0000 </r>
       <r>    -2.4220     0.0000    24.0000 </r>
       <r>    -2.3114     0.0000    24.0000 </r>
       <r>    -2.2007     0.0016    24.0002 </r>
       <r>    -2.0901     0.1666    24.0186 </r>
       <r>    -1.9795     2.6597    24.3129 </r>
       <r>    -1.8688     7.9754    25.1952 </r>
       <r>    -1.7582     8.1231    26.0939 </r>
       <r>    -1.6476     6.8109    26.8474 </r>
       <r>    -1.5369     5.3381    27.4379 </r>
       <r>    -1.4263     6.3879    28.1446 </r>
       <r>    -1.3157     8.4916    29.0841 </r>
       <r>    -1.2050     5.9271    29.7398 </r>
       <r>    -1.0944     3.8832    30.1694 </r>
       <r>    -0.9838     4.8700    30.7082 </r>
       <r>    -0.8732     8.4024    31.6377 </r>
       <r>    -0.7625     6.9268    32.4041 </r>
       <r>    -0.6519     7.3837    33.2209 </r>
       <r>    -0.5413     6.3104    33.9191 </r>
       <r>    -0.4306     6.2687    34.6126 </r>
       <r>    -0.3200     5.9484    35.2707 </r>
       <r>    -0.2094     8.0784    36.1644 </r>
       <r>    -0.0987     9.8339    37.2523 </r>
       <r>     0.0119     8.1660    38.1557 </r>
       <r>     0.1225     8.9473    39.1456 </r>
       <r>     0.2332     9.4981    40.1964 </r>
       <r>     0.3438    10.7009    41.3802 </r>
       <r>     0.4544     8.7141    42.3443 </r>
       <r>     0.5651     5.7904    42.9849 </r>
       <r>     0.6757     6.2803    43.6797 </r>
       <r>     0.7863     5.2747    44.2633 </r>
       <r>     0.8970     6.6634    45.0004 </r>
       <r>     1.0076     6.7037    45.7421 </r>
       <r>     1.1182     7.8451    46.6100 </r>
       <r>     1.2289     8.2813    47.5262 </r>
       <r>     1.3395     3.7367    47.9396 </r>
       <r>     1.4501     0.5333    47.9986 </r>
       <r>     1.5607     0.0129    48.0000 </r>
       <r>     1.6714     0.0000    48.0000 </r>
       <r>     1.7820     0.0000    48.0000 </r>
       <r>     1.8926     0.0000    48.0000 </r>
       <r>     2.0033     0.0000    48.0000 </r>
       <r>     2.1139     0.0000    48.0000 </r>
       <r>     2.2245     0.0000    48.0000 </r>
       <r>     2.3352     0.0000    48.0000 </r>
       <r>     2.4458     0.0000    48.0000 </r>
       <r>     2.5564     0.0000    48.0000 </r>
       <r>     2.6671     0.0000    48.0000 </r>
       <r>     2.7777     0.0000    48.0000 </r>
       <r>     2.8883     0.0000    48.0000 </r>
       <r>     2.9990     0.0000    48.0000 </r>
       <r>     3.1096     0.0000    48.0000 </r>
       <r>     3.2202     0.0000    48.0000 </r>
       <r>     3.3309     0.0000    48.0000 </r>
       <r>     3.4415     0.0000    48.0000 </r>
       <r>     3.5521     0.0000    48.0000 </r>
       <r>     3.6628     0.0000    48.0000 </r>
       <r>     3.7734     0.0000    48.0000 </r>
       <r>     3.8840     0.0000    48.0000 </r>
       <r>     3.9946     0.0000    48.0000 </r>
       <r>     4.1053     0.0000    48.0000 </r>
       <r>     4.2159     0.0000    48.0000 </r>
       <r>     4.3265     0.0000    48.0000 </r>
       <r>     4.4372     0.0000    48.0000 </r>
       <r>     4.5478     0.0000    48.0000 </r>
       <r>     4.6584     0.0000    48.0000 </r>
       <r>     4.7691     0.0000    48.0000 </r>
       <r>     4.8797     0.0000    48.0000 </r>
       <r>     4.9903     0.0000    48.0000 </r>
       <r>     5.1010     0.0000    48.0000 </r>
       <r>     5.2116     0.0000    48.0000 </r>
       <r>     5.3222     0.0000    48.0000 </r>
       <r>     5.4329     0.0000    48.0000 </r>
       <r>     5.5435     0.0000    48.0000 </r>
       <r>     5.6541     0.0000    48.0000 </r>
       <r>     5.7648     0.0000    48.0000 </r>
       <r>     5.8754     0.0000    48.0000 </r>
       <r>     5.9860     0.0000    48.0000 </r>
       <r>     6.0966     0.0000    48.0000 </r>
       <r>     6.2073     0.0000    48.0000 </r>
       <r>     6.3179     0.0000    48.0000 </r>
       <r>     6.4285     0.0000    48.0000 </r>
       <r>     6.5392     0.0000    48.0000 </r>
       <r>     6.6498     0.0000    48.0000 </r>
       <r>     6.7604     0.0000    48.0000 </r>
       <r>     6.8711     0.0000    48.0000 </r>
       <r>     6.9817     0.0000    48.0000 </r>
       <r>     7.0923     0.0002    48.0000 </r>
       <r>     7.2030     0.0123    48.0014 </r>
       <r>     7.3136     0.1131    48.0139 </r>
       <r>     7.4242     0.1351    48.0288 </r>
       <r>     7.5349     0.0214    48.0312 </r>
       <r>     7.6455     0.0004    48.0313 </r>
       <r>     7.7561     0.0031    48.0316 </r>
       <r>     7.8668     0.0896    48.0415 </r>
       <r>     7.9774     0.3150    48.0764 </r>
       <r>     8.0880     0.1825    48.0965 </r>
       <r>     8.1987     0.5061    48.1525 </r>
       <r>     8.3093     0.9256    48.2549 </r>
       <r>     8.4199     0.2313    48.2805 </r>
       <r>     8.5305     0.0580    48.2869 </r>
       <r>     8.6412     0.8224    48.3779 </r>
       <r>     8.7518     1.8570    48.5834 </r>
       <r>     8.8624     0.6294    48.6530 </r>
       <r>     8.9731     0.0293    48.6562 </r>
       <r>     9.0837     0.0006    48.6563 </r>
       <r>     9.1943     0.0297    48.6596 </r>
       <r>     9.3050     0.2542    48.6877 </r>
       <r>     9.4156     0.5767    48.7515 </r>
       <r>     9.5262     1.0769    48.8706 </r>
       <r>     9.6369     1.4575    49.0319 </r>
       <r>     9.7475     3.0760    49.3722 </r>
       <r>     9.8581     2.9684    49.7006 </r>
       <r>     9.9688     1.7413    49.8932 </r>
       <r>    10.0794     0.5425    49.9532 </r>
       <r>    10.1900     1.0870    50.0735 </r>
       <r>    10.3007     1.3703    50.2251 </r>
       <r>    10.4113     2.0708    50.4542 </r>
       <r>    10.5219     3.1226    50.7997 </r>
       <r>    10.6326     5.1047    51.3644 </r>
       <r>    10.7432     9.0610    52.3668 </r>
       <r>    10.8538     6.1649    53.0489 </r>
       <r>    10.9644     6.5589    53.7745 </r>
       <r>    11.0751     7.3292    54.5853 </r>
       <r>    11.1857     2.9995    54.9172 </r>
       <r>    11.2963     3.6862    55.3250 </r>
       <r>    11.4070     5.6689    55.9521 </r>
       <r>    11.5176     6.3243    56.6518 </r>
       <r>    11.6282     5.3293    57.2414 </r>
       <r>    11.7389     3.3591    57.6130 </r>
       <r>    11.8495     2.1516    57.8511 </r>
       <r>    11.9601     0.7258    57.9314 </r>
       <r>    12.0708     0.4903    57.9856 </r>
       <r>    12.1814     0.1260    57.9995 </r>
       <r>    12.2920     0.0041    58.0000 </r>
       <r>    12.4027     0.0000    58.0000 </r>
       <r>    12.5133     0.0000    58.0000 </r>
       <r>    12.6239     0.0000    58.0000 </r>
       <r>    12.7346     0.0000    58.0000 </r>
       <r>    12.8452     0.0000    58.0000 </r>
       <r>    12.9558     0.0000    58.0000 </r>
       <r>    13.0665     0.0000    58.0000 </r>
       <r>    13.1771     0.0000    58.0000 </r>
       <r>    13.2877     0.0000    58.0000 </r>
       <r>    13.3983     0.0000    58.0000 </r>
       <r>    13.5090     0.0000    58.0000 </r>
      </set>
     </set>
    </array>
   </total>
  </dos>
 </calculation>
 <structure name="finalpos" >
  <crystal>
   <varray name="basis" >
    <v>       4.87342988       0.00000000       0.00000000 </v>
    <v>      -2.43671494       4.22051408       0.00000000 </v>
    <v>       0.00000000       0.00000000       5.37418982 </v>
   </varray>
   <i name="volume">    110.53837516 </i>
   <varray name="rec_basis" >
    <v>       0.20519429       0.11846898      -0.00000000 </v>
    <v>       0.00000000       0.23693796       0.00000000 </v>
    <v>       0.00000000      -0.00000000       0.18607456 </v>
   </varray>
  </crystal>
  <varray name="positions" >
   <v>       0.46464632       0.00000000       0.66666667 </v>
   <v>       0.00015282       0.46477768       0.33340807 </v>
   <v>       0.53537514       0.53522232       0.99992526 </v>
   <v>       0.13535610       0.72394649       0.55435160 </v>
   <v>       0.27601126       0.41146510       0.22077109 </v>
   <v>       0.58835863       0.86434633       0.88744364 </v>
   <v>       0.41140961       0.27605351       0.77898174 </v>
   <v>       0.86454616       0.58853490       0.11256225 </v>
   <v>       0.72401230       0.13565367       0.44588970 </v>
  </varray>
 </structure>
</modeling>
