<?xml version="1.0" encoding="ISO-8859-1"?>
<modeling>
 <generator>
  <i name="program" type="string">vasp </i>
  <i name="version" type="string">6.4.1  </i>
  <i name="subversion" type="string">05Apr23 (build Sep  6 2023 20:49:31) complex                          parallel </i>
  <i name="platform" type="string">LinuxNV </i>
  <i name="date" type="string">2023 10 19 </i>
  <i name="time" type="string">14:05:35 </i>
 </generator>
 <incar>
  <i type="string" name="PREC">Accurate</i>
  <i type="string" name="ALGO">Fast</i>
  <i name="EDIFF">      0.00000001</i>
  <i name="ENCUT">    500.00000000</i>
  <i type="int" name="ISMEAR">     0</i>
  <i name="SIGMA">      0.10000000</i>
  <i type="logical" name="LEPSILON"> T  </i>
 </incar>
 <primitive_cell>
  <structure name="primitive_cell" >
   <crystal>
    <varray name="basis" >
     <v>       4.87342988       0.00000000       0.00000000 </v>
     <v>      -2.43671494       4.22051408       0.00000000 </v>
     <v>       0.00000000       0.00000000       5.37418982 </v>
    </varray>
    <i name="volume">    110.53837516 </i>
    <varray name="rec_basis" >
     <v>       0.20519429       0.11846898      -0.00000000 </v>
     <v>       0.00000000       0.23693796       0.00000000 </v>
     <v>       0.00000000      -0.00000000       0.18607456 </v>
    </varray>
   </crystal>
   <varray name="positions" >
    <v>       0.46471212       0.00005835       0.66668664 </v>
    <v>       0.00002917       0.46466119       0.33332335 </v>
    <v>       0.53526612       0.53529529       0.99999001 </v>
    <v>       0.13558997       0.72411979       0.55405916 </v>
    <v>       0.27595111       0.41134597       0.22082860 </v>
    <v>       0.58830007       0.86452122       0.88767855 </v>
    <v>       0.41154054       0.27615477       0.77901495 </v>
    <v>       0.86441912       0.58833525       0.11245106 </v>
    <v>       0.72418618       0.13549697       0.44596767 </v>
   </varray>
  </structure>
  <varray name="primitive_index" >
   <v type="int" >        1 </v>
   <v type="int" >        2 </v>
   <v type="int" >        3 </v>
   <v type="int" >        4 </v>
   <v type="int" >        5 </v>
   <v type="int" >        6 </v>
   <v type="int" >        7 </v>
   <v type="int" >        8 </v>
   <v type="int" >        9 </v>
  </varray>
 </primitive_cell>
 <kpoints>
  <generation param="Gamma">
   <v type="int" name="divisions">       4        4        4 </v>
   <v name="usershift">      0.00000000       0.00000000       0.00000000 </v>
   <v name="genvec1">      0.25000000       0.00000000       0.00000000 </v>
   <v name="genvec2">      0.00000000       0.25000000       0.00000000 </v>
   <v name="genvec3">      0.00000000       0.00000000       0.25000000 </v>
   <v name="shift">      0.00000000       0.00000000       0.00000000 </v>
  </generation>
  <varray name="kpointlist" >
   <v>       0.00000000       0.00000000       0.00000000 </v>
   <v>       0.25000000       0.00000000       0.00000000 </v>
   <v>       0.00000000       0.25000000       0.00000000 </v>
   <v>      -0.25000000       0.25000000       0.00000000 </v>
   <v>       0.50000000       0.00000000       0.00000000 </v>
   <v>       0.00000000       0.50000000       0.00000000 </v>
   <v>       0.50000000       0.50000000       0.00000000 </v>
   <v>       0.25000000       0.25000000       0.00000000 </v>
   <v>      -0.25000000       0.50000000       0.00000000 </v>
   <v>       0.50000000       0.25000000       0.00000000 </v>
   <v>       0.00000000       0.00000000       0.25000000 </v>
   <v>       0.25000000       0.00000000       0.25000000 </v>
   <v>       0.00000000       0.25000000       0.25000000 </v>
   <v>      -0.25000000       0.25000000       0.25000000 </v>
   <v>      -0.25000000       0.00000000       0.25000000 </v>
   <v>       0.00000000      -0.25000000       0.25000000 </v>
   <v>       0.25000000      -0.25000000       0.25000000 </v>
   <v>       0.50000000       0.00000000       0.25000000 </v>
   <v>       0.00000000       0.50000000       0.25000000 </v>
   <v>       0.50000000       0.50000000       0.25000000 </v>
   <v>       0.25000000       0.25000000       0.25000000 </v>
   <v>      -0.25000000       0.50000000       0.25000000 </v>
   <v>       0.50000000       0.25000000       0.25000000 </v>
   <v>      -0.25000000      -0.25000000       0.25000000 </v>
   <v>       0.25000000       0.50000000       0.25000000 </v>
   <v>       0.50000000      -0.25000000       0.25000000 </v>
   <v>       0.00000000       0.00000000       0.50000000 </v>
   <v>       0.25000000       0.00000000       0.50000000 </v>
   <v>       0.00000000       0.25000000       0.50000000 </v>
   <v>      -0.25000000       0.25000000       0.50000000 </v>
   <v>       0.50000000       0.00000000       0.50000000 </v>
   <v>       0.00000000       0.50000000       0.50000000 </v>
   <v>       0.50000000       0.50000000       0.50000000 </v>
   <v>       0.25000000       0.25000000       0.50000000 </v>
   <v>      -0.25000000       0.50000000       0.50000000 </v>
   <v>       0.50000000       0.25000000       0.50000000 </v>
  </varray>
  <varray name="weights" >
   <v>       0.01562500 </v>
   <v>       0.03125000 </v>
   <v>       0.03125000 </v>
   <v>       0.03125000 </v>
   <v>       0.01562500 </v>
   <v>       0.01562500 </v>
   <v>       0.01562500 </v>
   <v>       0.03125000 </v>
   <v>       0.03125000 </v>
   <v>       0.03125000 </v>
   <v>       0.03125000 </v>
   <v>       0.03125000 </v>
   <v>       0.03125000 </v>
   <v>       0.03125000 </v>
   <v>       0.03125000 </v>
   <v>       0.03125000 </v>
   <v>       0.03125000 </v>
   <v>       0.03125000 </v>
   <v>       0.03125000 </v>
   <v>       0.03125000 </v>
   <v>       0.03125000 </v>
   <v>       0.03125000 </v>
   <v>       0.03125000 </v>
   <v>       0.03125000 </v>
   <v>       0.03125000 </v>
   <v>       0.03125000 </v>
   <v>       0.01562500 </v>
   <v>       0.03125000 </v>
   <v>       0.03125000 </v>
   <v>       0.03125000 </v>
   <v>       0.01562500 </v>
   <v>       0.01562500 </v>
   <v>       0.01562500 </v>
   <v>       0.03125000 </v>
   <v>       0.03125000 </v>
   <v>       0.03125000 </v>
  </varray>
 </kpoints>
 <parameters>
  <separator name="general" >
   <i type="string" name="SYSTEM">unknown system</i>
   <i type="logical" name="LCOMPAT"> F  </i>
  </separator>
  <separator name="electronic" >
   <i type="string" name="PREC">accura</i>
   <i name="ENMAX">    500.00000000</i>
   <i name="ENAUG">    605.39200000</i>
   <i name="EDIFF">      0.00000001</i>
   <i type="int" name="IALGO">    68</i>
   <i type="int" name="IWAVPR">    10</i>
   <i type="int" name="NBANDS">    29</i>
   <i type="int" name="NBANDSLOW">    -1</i>
   <i type="int" name="NBANDSHIGH">    -1</i>
   <i name="NELECT">     48.00000000</i>
   <i type="int" name="TURBO">     0</i>
   <i type="int" name="IRESTART">     0</i>
   <i type="int" name="NREBOOT">     0</i>
   <i type="int" name="NMIN">     0</i>
   <i name="EREF">      0.00000000</i>
   <separator name="electronic smearing" >
    <i type="int" name="ISMEAR">     0</i>
    <i name="SIGMA">      0.10000000</i>
    <i name="KSPACING">      0.50000000</i>
    <i type="logical" name="KGAMMA"> T  </i>
    <i type="logical" name="KBLOWUP"> T  </i>
   </separator>
   <separator name="electronic projectors" >
    <i type="logical" name="LREAL"> F  </i>
    <v name="ROPT">      0.00000000      0.00000000</v>
    <i type="int" name="LMAXPAW">  -100</i>
    <i type="int" name="LMAXMIX">     2</i>
    <i type="logical" name="NLSPLINE"> F  </i>
   </separator>
   <separator name="electronic startup" >
    <i type="int" name="ISTART">     0</i>
    <i type="int" name="ICHARG">     2</i>
    <i type="int" name="INIWAV">     1</i>
   </separator>
   <separator name="electronic spin" >
    <i type="int" name="ISPIN">     1</i>
    <i type="logical" name="LNONCOLLINEAR"> F  </i>
    <v name="MAGMOM">      1.00000000      1.00000000      1.00000000      1.00000000      1.00000000      1.00000000      1.00000000      1.00000000      1.00000000</v>
    <i name="NUPDOWN">     -1.00000000</i>
    <i type="logical" name="LSORBIT"> F  </i>
    <v name="SAXIS">      0.00000000      0.00000000      1.00000000</v>
    <i type="logical" name="LSPIRAL"> F  </i>
    <v name="QSPIRAL">      0.00000000      0.00000000      0.00000000</v>
    <i type="logical" name="LZEROZ"> F  </i>
   </separator>
   <separator name="electronic exchange-correlation" >
    <i type="logical" name="LASPH"> F  </i>
    <i type="logical" name="LMETAGGA"> F  </i>
   </separator>
   <separator name="electronic convergence" >
    <i type="int" name="NELM">    60</i>
    <i type="int" name="NELMDL">    -5</i>
    <i type="int" name="NELMIN">     2</i>
    <i name="ENINI">    500.00000000</i>
    <separator name="electronic convergence detail" >
     <i type="logical" name="LDIAG"> T  </i>
     <i type="logical" name="LSUBROT"> F  </i>
     <i name="WEIMIN">      0.00000000</i>
     <i name="EBREAK">      0.00000000</i>
     <i name="DEPER">      0.30000000</i>
     <i type="int" name="NRMM">     4</i>
     <i name="TIME">      0.40000000</i>
    </separator>
   </separator>
   <separator name="electronic mixer" >
    <i name="AMIX">      0.40000000</i>
    <i name="BMIX">      1.00000000</i>
    <i name="AMIN">      0.10000000</i>
    <i name="AMIX_MAG">      1.60000000</i>
    <i name="BMIX_MAG">      1.00000000</i>
    <separator name="electronic mixer details" >
     <i type="int" name="IMIX">     4</i>
     <i type="logical" name="MIXFIRST"> F  </i>
     <i type="int" name="MAXMIX">   -45</i>
     <i name="WC">    100.00000000</i>
     <i type="int" name="INIMIX">     1</i>
     <i type="int" name="MIXPRE">     1</i>
     <i type="int" name="MREMOVE">     5</i>
    </separator>
   </separator>
   <separator name="electronic dipolcorrection" >
    <i type="logical" name="LDIPOL"> F  </i>
    <i type="logical" name="LMONO"> F  </i>
    <i type="int" name="IDIPOL">     0</i>
    <i name="EPSILON">      1.00000000</i>
    <v name="DIPOL">   -100.00000000   -100.00000000   -100.00000000</v>
    <i name="EFIELD">      0.00000000</i>
   </separator>
  </separator>
  <separator name="grids" >
   <i type="int" name="NGX">    36</i>
   <i type="int" name="NGY">    36</i>
   <i type="int" name="NGZ">    40</i>
   <i type="int" name="NGXF">    72</i>
   <i type="int" name="NGYF">    72</i>
   <i type="int" name="NGZF">    80</i>
   <i type="logical" name="ADDGRID"> F  </i>
  </separator>
  <separator name="ionic" >
   <i type="int" name="NSW">     0</i>
   <i type="int" name="IBRION">    -1</i>
   <i type="int" name="MDALGO">     0</i>
   <i type="int" name="ISIF">     2</i>
   <i name="PSTRESS">      0.00000000</i>
   <i name="EDIFFG">      0.00000010</i>
   <i type="int" name="NFREE">     0</i>
   <i name="POTIM">      0.50000000</i>
   <i name="SMASS">     -3.00000000</i>
   <i name="SCALEE">      1.00000000</i>
  </separator>
  <separator name="ionic md" >
   <i name="TEBEG">      0.00010000</i>
   <i name="TEEND">      0.00010000</i>
   <i type="int" name="NBLOCK">     1</i>
   <i type="int" name="KBLOCK">     1</i>
   <i type="int" name="NPACO">   256</i>
   <i name="APACO">     10.00000000</i>
  </separator>
  <separator name="symmetry" >
   <i type="int" name="ISYM">     2</i>
   <i name="SYMPREC">      0.00001000</i>
  </separator>
  <separator name="dos" >
   <i type="int" name="LORBIT">     0</i>
   <v name="RWIGS">     -1.00000000     -1.00000000</v>
   <i type="int" name="NEDOS">   301</i>
   <i name="EMIN">     10.00000000</i>
   <i name="EMAX">    -10.00000000</i>
   <i name="EFERMI">      0.00000000</i>
  </separator>
  <separator name="writing" >
   <i type="int" name="NWRITE">     2</i>
   <i type="logical" name="LWAVE"> T  </i>
   <i type="logical" name="LDOWNSAMPLE"> F  </i>
   <i type="logical" name="LCHARG"> T  </i>
   <i type="logical" name="LPARD"> F  </i>
   <i type="logical" name="LVTOT"> F  </i>
   <i type="logical" name="LVHAR"> F  </i>
   <i type="logical" name="LELF"> F  </i>
   <i type="logical" name="LOPTICS"> F  </i>
   <v name="STM">      0.00000000      0.00000000      0.00000000      0.00000000      0.00000000      0.00000000      0.00000000</v>
  </separator>
  <separator name="performance" >
   <i type="int" name="NPAR">     1</i>
   <i type="int" name="NSIM">     4</i>
   <i type="int" name="NBLK">    -1</i>
   <i type="logical" name="LPLANE"> T  </i>
   <i type="logical" name="LSCALAPACK"> T  </i>
   <i type="logical" name="LSCAAWARE"> F  </i>
   <i type="logical" name="LSCALU"> F  </i>
   <i type="logical" name="LASYNC"> F  </i>
   <i type="logical" name="LORBITALREAL"> F  </i>
  </separator>
  <separator name="miscellaneous" >
   <i type="int" name="IDIOT">     3</i>
   <i type="int" name="PHON_NSTRUCT">    -1</i>
   <i type="logical" name="LMUSIC"> F  </i>
   <v name="POMASS">     28.08500000     16.00000000</v>
   <v name="DARWINR">      0.00000000      0.00000000</v>
   <v name="DARWINV">      1.00000000      1.00000000</v>
   <i type="logical" name="LCORR"> T  </i>
  </separator>
  <i type="logical" name="GGA_COMPAT"> T  </i>
  <i type="logical" name="LBERRY"> F  </i>
  <i type="int" name="ICORELEVEL">     0</i>
  <i type="logical" name="LDAU"> F  </i>
  <i type="int" name="I_CONSTRAINED_M">     0</i>
  <separator name="electronic exchange-correlation" >
   <i type="string" name="GGA">--</i>
   <i type="int" name="VOSKOWN">     0</i>
   <i type="logical" name="LHFCALC"> F  </i>
   <i type="string" name="PRECFOCK"></i>
   <i type="logical" name="LSYMGRAD"> F  </i>
   <i type="logical" name="LHFONE"> F  </i>
   <i type="logical" name="LRHFCALC"> F  </i>
   <i type="logical" name="LTHOMAS"> F  </i>
   <i type="logical" name="LMODELHF"> F  </i>
   <i type="logical" name="LFOCKACE"> F  </i>
   <i name="ENCUT4O">     -1.00000000</i>
   <i type="int" name="EXXOEP">     0</i>
   <i type="int" name="FOURORBIT">     0</i>
   <i name="AEXX">      0.00000000</i>
   <i name="HFALPHA">      0.00000000</i>
   <i name="MCALPHA">      0.00000000</i>
   <i name="ALDAX">      1.00000000</i>
   <i name="AGGAX">      1.00000000</i>
   <i name="ALDAC">      1.00000000</i>
   <i name="AGGAC">      1.00000000</i>
   <i type="int" name="NKREDX">     1</i>
   <i type="int" name="NKREDY">     1</i>
   <i type="int" name="NKREDZ">     1</i>
   <i type="logical" name="SHIFTRED"> F  </i>
   <i type="logical" name="ODDONLY"> F  </i>
   <i type="logical" name="EVENONLY"> F  </i>
   <i type="int" name="LMAXFOCK">     0</i>
   <i type="int" name="NMAXFOCKAE">     0</i>
   <i type="logical" name="LFOCKAEDFT"> F  </i>
   <i name="HFSCREEN">      0.00000000</i>
   <i name="HFSCREENC">      0.00000000</i>
   <i type="int" name="NBANDSGWLOW">     0</i>
  </separator>
  <separator name="vdW DFT" >
   <i type="logical" name="LUSE_VDW"> F  </i>
   <i type="int" name="IVDW_NL">     1</i>
   <i type="logical" name="LSPIN_VDW"> F  </i>
   <i name="Zab_VDW">     -0.84910000</i>
   <i name="PARAM1">      0.12340000</i>
   <i name="PARAM2">      1.00000000</i>
   <i name="PARAM3">      0.00000000</i>
  </separator>
  <separator name="model GW" >
   <i type="int" name="MODEL_GW">     0</i>
   <i name="MODEL_EPS0">      7.36922501</i>
   <i name="MODEL_ALPHA">      1.00000000</i>
  </separator>
  <separator name="linear response parameters" >
   <i type="logical" name="LEPSILON"> T  </i>
   <i type="logical" name="LRPA"> F  </i>
   <i type="logical" name="LNABLA"> F  </i>
   <i type="logical" name="LVEL"> F  </i>
   <i name="CSHIFT">      0.10000000</i>
   <i name="OMEGAMAX">     -1.00000000</i>
   <i name="DEG_THRESHOLD">      0.00200000</i>
   <i name="RTIME">     -0.10000000</i>
   <i name="WPLASMAI">      0.00000000</i>
   <v name="DFIELD">      0.00000000      0.00000000      0.00000000</v>
   <v name="WPLASMA">      0.00000000      0.00000000      0.00000000      0.00000000      0.00000000      0.00000000      0.00000000      0.00000000      0.00000000</v>
  </separator>
  <separator name="orbital magnetization" >
   <i type="logical" name="NUCIND"> F  </i>
   <v name="MAGPOS">      0.00000000      0.00000000      0.00000000</v>
   <i type="logical" name="LNICSALL"> T  </i>
   <i type="logical" name="ORBITALMAG"> F  </i>
   <i type="logical" name="LMAGBLOCH"> F  </i>
   <i type="logical" name="LCHIMAG"> F  </i>
   <i type="logical" name="LGAUGE"> T  </i>
   <i type="int" name="MAGATOM">     0</i>
   <v name="MAGDIPOL">      0.00000000      0.00000000      0.00000000</v>
   <v name="AVECCONST">      0.00000000      0.00000000      0.00000000</v>
  </separator>
  <separator name="response functions" >
   <i type="logical" name="LALL_IN_ONE"> F  </i>
   <i type="int" name="IALL_IN_ONE">    -1</i>
   <i type="int" name="NBANDS_WAVE">    -1</i>
   <i type="logical" name="LFINITE_TEMPERATURE"> F  </i>
   <i type="logical" name="LADDER"> F  </i>
   <i type="logical" name="LRPAFORCE"> F  </i>
   <i type="logical" name="LFXC"> F  </i>
   <i type="logical" name="LHARTREE"> T  </i>
   <i type="int" name="IBSE">     0</i>
   <v type="int" name="KPOINT">    -1     0     0     0</v>
   <i type="logical" name="LTCTC"> F  </i>
   <i type="logical" name="LTCTE"> F  </i>
   <i type="logical" name="LTETE"> F  </i>
   <i type="logical" name="LTRIPLET"> F  </i>
   <i type="logical" name="LFXCEPS"> F  </i>
   <i type="logical" name="LFXHEG"> F  </i>
   <i type="int" name="NATURALO">     2</i>
   <i type="logical" name="LHOLEGF"> F  </i>
   <i type="logical" name="L2ORDER"> F  </i>
   <i type="logical" name="LDMP1"> F  </i>
   <i type="logical" name="LMP2LT"> F  </i>
   <i type="logical" name="LSMP2LT"> F  </i>
   <i type="logical" name="LGWLF"> F  </i>
   <i name="ENCUTGW">     -1.60000002</i>
   <i name="ENCUTGWSOFT">     -1.60000002</i>
   <i name="ENCUTLF">     -1.00000000</i>
   <i type="logical" name="LESF_SPLINES"> F  </i>
   <i type="int" name="LMAXMP2">    -1</i>
   <i name="SCISSOR">      0.00000000</i>
   <i type="int" name="NOMEGA">     0</i>
   <i type="int" name="NOMEGAR">     0</i>
   <i type="int" name="NBANDSGW">    -1</i>
   <i type="int" name="NBANDSO">    -1</i>
   <i type="int" name="NBANDSV">    -1</i>
   <i type="int" name="NELMGW">     1</i>
   <i type="int" name="NELMHF">     1</i>
   <i type="int" name="DIM">     3</i>
   <i type="int" name="IESPILON">     4</i>
   <i type="int" name="ANTIRES">     0</i>
   <i name="OMEGAMAX">    -30.00000000</i>
   <i name="OMEGAMIN">    -30.00000000</i>
   <i name="OMEGATL">   -200.00000000</i>
   <i type="int" name="OMEGAGRID">     0</i>
   <i name="CSHIFT">     -0.10000000</i>
   <i type="logical" name="LSELFENERGY"> F  </i>
   <i type="logical" name="LSPECTRAL"> F  </i>
   <i type="logical" name="LSPECTRALGW"> F  </i>
   <i type="logical" name="LSINGLES"> F  </i>
   <i type="logical" name="LFERMIGW"> F  </i>
   <i type="logical" name="ODDONLYGW"> F  </i>
   <i type="logical" name="EVENONLYGW"> F  </i>
   <i type="int" name="NKREDLFX">     1</i>
   <i type="int" name="NKREDLFY">     1</i>
   <i type="int" name="NKREDLFZ">     1</i>
   <i type="int" name="MAXMEM">  2800</i>
   <i type="int" name="TELESCOPE">     0</i>
   <i type="int" name="NTAUPAR">    -1</i>
   <i type="int" name="NOMEGAPAR">    -1</i>
   <i name="DAMP_NEWTON">      0.80000001</i>
   <i name="LAMBDA">      1.00000000</i>
  </separator>
  <separator name="External order field" >
   <i name="OFIELD_KAPPA">      0.00000000</i>
   <v name="OFIELD_K">      0.00000000      0.00000000      0.00000000</v>
   <i name="OFIELD_Q6_NEAR">      0.00000000</i>
   <i name="OFIELD_Q6_FAR">      0.00000000</i>
   <i name="OFIELD_A">      0.00000000</i>
  </separator>
  <separator name="optional k-points parameters" >
   <i type="int" name="KPOINTS_OPT_MODE">     1</i>
   <i type="logical" name="LKPOINTS_OPT"> F  </i>
  </separator>
 </parameters>
 <atominfo>
  <atoms>       9 </atoms>
  <types>       2 </types>
  <array name="atoms" >
   <dimension dim="1">ion</dimension>
   <field type="string">element</field>
   <field type="int">atomtype</field>
   <set>
    <rc><c>Si</c><c>   1</c></rc>
    <rc><c>Si</c><c>   1</c></rc>
    <rc><c>Si</c><c>   1</c></rc>
    <rc><c>O </c><c>   2</c></rc>
    <rc><c>O </c><c>   2</c></rc>
    <rc><c>O </c><c>   2</c></rc>
    <rc><c>O </c><c>   2</c></rc>
    <rc><c>O </c><c>   2</c></rc>
    <rc><c>O </c><c>   2</c></rc>
   </set>
  </array>
  <array name="atomtypes" >
   <dimension dim="1">type</dimension>
   <field type="int">atomspertype</field>
   <field type="string">element</field>
   <field>mass</field>
   <field>valence</field>
   <field type="string">pseudopotential</field>
   <set>
    <rc><c>   3</c><c>Si</c><c>     28.08500000</c><c>      4.00000000</c><c>  PAW_PBE Si 05Jan2001                  </c></rc>
    <rc><c>   6</c><c>O </c><c>     16.00000000</c><c>      6.00000000</c><c>  PAW_PBE O 08Apr2002                   </c></rc>
   </set>
  </array>
 </atominfo>
 <structure name="initialpos" >
  <crystal>
   <varray name="basis" >
    <v>       4.87342988       0.00000000       0.00000000 </v>
    <v>      -2.43671494       4.22051408       0.00000000 </v>
    <v>       0.00000000       0.00000000       5.37418982 </v>
   </varray>
   <i name="volume">    110.53837516 </i>
   <varray name="rec_basis" >
    <v>       0.20519429       0.11846898      -0.00000000 </v>
    <v>       0.00000000       0.23693796       0.00000000 </v>
    <v>       0.00000000      -0.00000000       0.18607456 </v>
   </varray>
  </crystal>
  <varray name="positions" >
   <v>       0.46471212       0.00005835       0.66668664 </v>
   <v>       0.00002917       0.46466119       0.33332335 </v>
   <v>       0.53526612       0.53529529       0.99999001 </v>
   <v>       0.13558997       0.72411979       0.55405916 </v>
   <v>       0.27595111       0.41134597       0.22082860 </v>
   <v>       0.58830007       0.86452122       0.88767855 </v>
   <v>       0.41154054       0.27615477       0.77901495 </v>
   <v>       0.86441912       0.58833525       0.11245106 </v>
   <v>       0.72418618       0.13549697       0.44596767 </v>
  </varray>
 </structure>
 <calculation>
  <scstep>
   <time name="dav">    1.10    1.09</time>
   <time name="total">    1.13    1.12</time>
   <energy>
    <i name="alphaZ">     71.30271804 </i>
    <i name="ewald">  -1930.19457043 </i>
    <i name="hartreedc">   -909.39679118 </i>
    <i name="XCdc">    141.70969114 </i>
    <i name="pawpsdc">   2343.66826019 </i>
    <i name="pawaedc">  -2301.68043871 </i>
    <i name="eentropy">     -0.00956660 </i>
    <i name="bandstr">    -14.49268368 </i>
    <i name="atom">   2903.33737771 </i>
    <i name="e_fr_energy">    304.24399648 </i>
    <i name="e_wo_entrp">    304.25356308 </i>
    <i name="e_0_energy">    304.24877978 </i>
   </energy>
  </scstep>
  <scstep>
   <time name="dav">    1.23    1.23</time>
   <time name="total">    1.23    1.23</time>
   <energy>
    <i name="e_fr_energy">    -61.45351736 </i>
    <i name="e_wo_entrp">    -61.45351736 </i>
    <i name="e_0_energy">    -61.45351736 </i>
   </energy>
  </scstep>
  <scstep>
   <time name="dav">    1.14    1.15</time>
   <time name="total">    1.14    1.15</time>
   <energy>
    <i name="e_fr_energy">    -80.17834819 </i>
    <i name="e_wo_entrp">    -80.17834819 </i>
    <i name="e_0_energy">    -80.17834819 </i>
   </energy>
  </scstep>
  <scstep>
   <time name="dav">    1.16    1.16</time>
   <time name="total">    1.16    1.16</time>
   <energy>
    <i name="e_fr_energy">    -80.41868911 </i>
    <i name="e_wo_entrp">    -80.41868911 </i>
    <i name="e_0_energy">    -80.41868911 </i>
   </energy>
  </scstep>
  <scstep>
   <time name="dav">    1.13    1.13</time>
   <time name="total">    1.31    1.28</time>
   <energy>
    <i name="e_fr_energy">    -80.42333148 </i>
    <i name="e_wo_entrp">    -80.42333148 </i>
    <i name="e_0_energy">    -80.42333148 </i>
   </energy>
  </scstep>
  <scstep>
   <time name="diag">    0.12    0.12</time>
   <time name="diis">    1.29    1.29</time>
   <time name="orth">    0.01    0.01</time>
   <time name="total">    1.62    1.57</time>
   <energy>
    <i name="e_fr_energy">    -70.67419466 </i>
    <i name="e_wo_entrp">    -70.67419466 </i>
    <i name="e_0_energy">    -70.67419466 </i>
   </energy>
  </scstep>
  <scstep>
   <time name="diag">    0.12    0.12</time>
   <time name="diis">    1.42    1.42</time>
   <time name="orth">    0.01    0.01</time>
   <time name="total">    1.75    1.70</time>
   <energy>
    <i name="e_fr_energy">    -70.97636525 </i>
    <i name="e_wo_entrp">    -70.97636525 </i>
    <i name="e_0_energy">    -70.97636525 </i>
   </energy>
  </scstep>
  <scstep>
   <time name="diag">    0.12    0.12</time>
   <time name="diis">    1.42    1.43</time>
   <time name="orth">    0.01    0.01</time>
   <time name="total">    1.75    1.71</time>
   <energy>
    <i name="e_fr_energy">    -70.96837067 </i>
    <i name="e_wo_entrp">    -70.96837067 </i>
    <i name="e_0_energy">    -70.96837067 </i>
   </energy>
  </scstep>
  <scstep>
   <time name="diag">    0.12    0.12</time>
   <time name="diis">    1.45    1.45</time>
   <time name="orth">    0.01    0.01</time>
   <time name="total">    1.78    1.73</time>
   <energy>
    <i name="e_fr_energy">    -70.98745886 </i>
    <i name="e_wo_entrp">    -70.98745886 </i>
    <i name="e_0_energy">    -70.98745886 </i>
   </energy>
  </scstep>
  <scstep>
   <time name="diag">    0.12    0.12</time>
   <time name="diis">    1.45    1.46</time>
   <time name="orth">    0.01    0.01</time>
   <time name="total">    1.79    1.74</time>
   <energy>
    <i name="e_fr_energy">    -70.99273284 </i>
    <i name="e_wo_entrp">    -70.99273284 </i>
    <i name="e_0_energy">    -70.99273284 </i>
   </energy>
  </scstep>
  <scstep>
   <time name="diag">    0.12    0.12</time>
   <time name="diis">    1.46    1.46</time>
   <time name="orth">    0.01    0.01</time>
   <time name="total">    1.79    1.75</time>
   <energy>
    <i name="e_fr_energy">    -70.98890546 </i>
    <i name="e_wo_entrp">    -70.98890546 </i>
    <i name="e_0_energy">    -70.98890546 </i>
   </energy>
  </scstep>
  <scstep>
   <time name="diag">    0.12    0.12</time>
   <time name="diis">    1.47    1.47</time>
   <time name="orth">    0.01    0.01</time>
   <time name="total">    1.80    1.76</time>
   <energy>
    <i name="e_fr_energy">    -70.98951193 </i>
    <i name="e_wo_entrp">    -70.98951193 </i>
    <i name="e_0_energy">    -70.98951193 </i>
   </energy>
  </scstep>
  <scstep>
   <time name="diag">    0.12    0.12</time>
   <time name="diis">    1.55    1.56</time>
   <time name="orth">    0.01    0.01</time>
   <time name="total">    1.88    1.84</time>
   <energy>
    <i name="e_fr_energy">    -70.98927917 </i>
    <i name="e_wo_entrp">    -70.98927917 </i>
    <i name="e_0_energy">    -70.98927917 </i>
   </energy>
  </scstep>
  <scstep>
   <time name="diag">    0.12    0.12</time>
   <time name="diis">    1.47    1.47</time>
   <time name="orth">    0.01    0.01</time>
   <time name="total">    1.80    1.75</time>
   <energy>
    <i name="e_fr_energy">    -70.98923329 </i>
    <i name="e_wo_entrp">    -70.98923329 </i>
    <i name="e_0_energy">    -70.98923329 </i>
   </energy>
  </scstep>
  <scstep>
   <time name="diag">    0.12    0.12</time>
   <time name="diis">    1.57    1.58</time>
   <time name="orth">    0.01    0.01</time>
   <time name="total">    1.91    1.86</time>
   <energy>
    <i name="e_fr_energy">    -70.98922919 </i>
    <i name="e_wo_entrp">    -70.98922919 </i>
    <i name="e_0_energy">    -70.98922919 </i>
   </energy>
  </scstep>
  <scstep>
   <time name="diag">    0.12    0.12</time>
   <time name="diis">    1.47    1.47</time>
   <time name="orth">    0.01    0.01</time>
   <time name="total">    1.81    1.76</time>
   <energy>
    <i name="e_fr_energy">    -70.98922813 </i>
    <i name="e_wo_entrp">    -70.98922813 </i>
    <i name="e_0_energy">    -70.98922813 </i>
   </energy>
  </scstep>
  <scstep>
   <time name="diag">    0.12    0.12</time>
   <time name="diis">    1.47    1.48</time>
   <time name="orth">    0.01    0.01</time>
   <time name="total">    1.80    1.76</time>
   <energy>
    <i name="e_fr_energy">    -70.98922838 </i>
    <i name="e_wo_entrp">    -70.98922838 </i>
    <i name="e_0_energy">    -70.98922838 </i>
   </energy>
  </scstep>
  <scstep>
   <time name="diag">    0.12    0.12</time>
   <time name="diis">    1.58    1.58</time>
   <time name="orth">    0.01    0.01</time>
   <time name="total">    1.92    1.87</time>
   <energy>
    <i name="e_fr_energy">    -70.98922860 </i>
    <i name="e_wo_entrp">    -70.98922860 </i>
    <i name="e_0_energy">    -70.98922860 </i>
   </energy>
  </scstep>
  <scstep>
   <time name="diag">    0.12    0.12</time>
   <time name="diis">    1.46    1.46</time>
   <time name="orth">    0.01    0.01</time>
   <time name="total">    2.60    1.87</time>
   <energy>
    <i name="e_fr_energy">    -70.98922857 </i>
    <i name="e_wo_entrp">    -70.98922857 </i>
    <i name="e_0_energy">    -70.98922857 </i>
   </energy>
  </scstep>
  <scstep>
   <time name="diag">    0.12    0.12</time>
   <time name="diis">    1.48    1.48</time>
   <time name="orth">    0.01    0.01</time>
   <time name="total">    1.85    1.77</time>
   <energy>
    <i name="e_fr_energy">    -70.98922861 </i>
    <i name="e_wo_entrp">    -70.98922861 </i>
    <i name="e_0_energy">    -70.98922861 </i>
   </energy>
  </scstep>
  <scstep>
   <time name="diag">    0.12    0.12</time>
   <time name="diis">    1.02    1.02</time>
   <time name="orth">    0.01    0.01</time>
   <time name="total">    1.35    1.30</time>
   <energy>
    <i name="e_fr_energy">    -70.98922858 </i>
    <i name="e_wo_entrp">    -70.98922858 </i>
    <i name="e_0_energy">    -70.98922858 </i>
   </energy>
  </scstep>
  <scstep>
   <time name="diag">    0.12    0.12</time>
   <time name="diis">    0.98    0.99</time>
   <time name="orth">    0.01    0.01</time>
   <time name="total">    1.15    1.12</time>
   <energy>
    <i name="alphaZ">     71.30271804 </i>
    <i name="ewald">  -1930.19457043 </i>
    <i name="hartreedc">  -1040.55692440 </i>
    <i name="XCdc">    150.68547027 </i>
    <i name="pawpsdc">   8045.46478025 </i>
    <i name="pawaedc">  -8005.84258940 </i>
    <i name="eentropy">     -0.00000000 </i>
    <i name="bandstr">   -265.18549061 </i>
    <i name="atom">   2903.33737771 </i>
    <i name="e_fr_energy">    -70.98922857 </i>
    <i name="e_wo_entrp">    -70.98922857 </i>
    <i name="e_0_energy">    -70.98922857 </i>
   </energy>
  </scstep>
  <structure>
   <crystal>
    <varray name="basis" >
     <v>       4.87342988       0.00000000       0.00000000 </v>
     <v>      -2.43671494       4.22051408       0.00000000 </v>
     <v>       0.00000000       0.00000000       5.37418982 </v>
    </varray>
    <i name="volume">    110.53837516 </i>
    <varray name="rec_basis" >
     <v>       0.20519429       0.11846898      -0.00000000 </v>
     <v>       0.00000000       0.23693796       0.00000000 </v>
     <v>       0.00000000      -0.00000000       0.18607456 </v>
    </varray>
   </crystal>
   <varray name="positions" >
    <v>       0.46471212       0.00005835       0.66668664 </v>
    <v>       0.00002917       0.46466119       0.33332335 </v>
    <v>       0.53526612       0.53529529       0.99999001 </v>
    <v>       0.13558997       0.72411979       0.55405916 </v>
    <v>       0.27595111       0.41134597       0.22082860 </v>
    <v>       0.58830007       0.86452122       0.88767855 </v>
    <v>       0.41154054       0.27615477       0.77901495 </v>
    <v>       0.86441912       0.58833525       0.11245106 </v>
    <v>       0.72418618       0.13549697       0.44596767 </v>
   </varray>
  </structure>
  <varray name="forces" >
   <v>       0.01817196      -0.00019049      -0.00016121 </v>
   <v>      -0.00923728       0.01586348       0.00010113 </v>
   <v>      -0.00883734      -0.01554951       0.00005466 </v>
   <v>      -0.27538442      -0.00138355       0.15418949 </v>
   <v>       0.13857939      -0.23744704       0.15303633 </v>
   <v>       0.13713458       0.23877269       0.15296045 </v>
   <v>      -0.27515792       0.00079169      -0.15256759 </v>
   <v>       0.13857175       0.23808429      -0.15333946 </v>
   <v>       0.13615929      -0.23894156      -0.15427380 </v>
  </varray>
  <varray name="stress" >
   <v>      71.96174807       0.13663375      -0.13509071 </v>
   <v>       0.13663362      71.96032397      -0.00133346 </v>
   <v>      -0.13509047      -0.00133336      73.61203031 </v>
  </varray>
  <energy>
   <i name="e_fr_energy">    -70.98922857 </i>
   <i name="e_wo_entrp">    -70.98922857 </i>
   <i name="e_0_energy">    -70.98922857 </i>
  </energy>
  <scstep>
   <time name="total">   18.50    3.92</time>
   <energy>
    <i name="e_fr_energy">   -182.48507678 </i>
    <i name="e_wo_entrp">   -182.48507678 </i>
    <i name="e_0_energy">   -182.48507678 </i>
   </energy>
  </scstep>
  <scstep>
   <time name="total">   17.83    3.41</time>
   <energy>
    <i name="e_fr_energy">   -172.60757270 </i>
    <i name="e_wo_entrp">   -172.60757270 </i>
    <i name="e_0_energy">   -172.60757270 </i>
   </energy>
  </scstep>
  <scstep>
   <time name="total">   17.79    3.42</time>
   <energy>
    <i name="e_fr_energy">   -172.75512689 </i>
    <i name="e_wo_entrp">   -172.75512689 </i>
    <i name="e_0_energy">   -172.75512689 </i>
   </energy>
  </scstep>
  <scstep>
   <time name="total">    1.37    1.38</time>
   <energy>
    <i name="e_fr_energy">   -172.76252985 </i>
    <i name="e_wo_entrp">   -172.76252985 </i>
    <i name="e_0_energy">   -172.76252985 </i>
   </energy>
  </scstep>
  <scstep>
   <time name="total">    1.39    1.40</time>
   <energy>
    <i name="e_fr_energy">   -172.76272018 </i>
    <i name="e_wo_entrp">   -172.76272018 </i>
    <i name="e_0_energy">   -172.76272018 </i>
   </energy>
  </scstep>
  <scstep>
   <time name="total">    1.43    1.44</time>
   <energy>
    <i name="e_fr_energy">   -172.76273344 </i>
    <i name="e_wo_entrp">   -172.76273344 </i>
    <i name="e_0_energy">   -172.76273344 </i>
   </energy>
  </scstep>
  <scstep>
   <time name="total">    1.44    1.45</time>
   <energy>
    <i name="e_fr_energy">   -172.76273116 </i>
    <i name="e_wo_entrp">   -172.76273116 </i>
    <i name="e_0_energy">   -172.76273116 </i>
   </energy>
  </scstep>
  <scstep>
   <time name="total">    1.46    1.46</time>
   <energy>
    <i name="e_fr_energy">   -172.76272806 </i>
    <i name="e_wo_entrp">   -172.76272806 </i>
    <i name="e_0_energy">   -172.76272806 </i>
   </energy>
  </scstep>
  <scstep>
   <time name="total">    1.45    1.45</time>
   <energy>
    <i name="e_fr_energy">   -172.76272653 </i>
    <i name="e_wo_entrp">   -172.76272653 </i>
    <i name="e_0_energy">   -172.76272653 </i>
   </energy>
  </scstep>
  <scstep>
   <time name="total">    1.47    1.47</time>
   <energy>
    <i name="e_fr_energy">   -172.76272484 </i>
    <i name="e_wo_entrp">   -172.76272484 </i>
    <i name="e_0_energy">   -172.76272484 </i>
   </energy>
  </scstep>
  <scstep>
   <time name="total">   18.22    3.87</time>
   <energy>
    <i name="e_fr_energy">   -182.31616796 </i>
    <i name="e_wo_entrp">   -182.31616796 </i>
    <i name="e_0_energy">   -182.31616796 </i>
   </energy>
  </scstep>
  <scstep>
   <time name="total">   17.68    3.38</time>
   <energy>
    <i name="e_fr_energy">   -172.61133103 </i>
    <i name="e_wo_entrp">   -172.61133103 </i>
    <i name="e_0_energy">   -172.61133103 </i>
   </energy>
  </scstep>
  <scstep>
   <time name="total">   17.81    3.42</time>
   <energy>
    <i name="e_fr_energy">   -172.75512029 </i>
    <i name="e_wo_entrp">   -172.75512029 </i>
    <i name="e_0_energy">   -172.75512029 </i>
   </energy>
  </scstep>
  <scstep>
   <time name="total">    1.37    1.37</time>
   <energy>
    <i name="e_fr_energy">   -172.76236976 </i>
    <i name="e_wo_entrp">   -172.76236976 </i>
    <i name="e_0_energy">   -172.76236976 </i>
   </energy>
  </scstep>
  <scstep>
   <time name="total">    1.38    1.38</time>
   <energy>
    <i name="e_fr_energy">   -172.76254508 </i>
    <i name="e_wo_entrp">   -172.76254508 </i>
    <i name="e_0_energy">   -172.76254508 </i>
   </energy>
  </scstep>
  <scstep>
   <time name="total">    1.40    1.41</time>
   <energy>
    <i name="e_fr_energy">   -172.76255904 </i>
    <i name="e_wo_entrp">   -172.76255904 </i>
    <i name="e_0_energy">   -172.76255904 </i>
   </energy>
  </scstep>
  <scstep>
   <time name="total">    1.43    1.44</time>
   <energy>
    <i name="e_fr_energy">   -172.76256233 </i>
    <i name="e_wo_entrp">   -172.76256233 </i>
    <i name="e_0_energy">   -172.76256233 </i>
   </energy>
  </scstep>
  <scstep>
   <time name="total">    1.44    1.45</time>
   <energy>
    <i name="e_fr_energy">   -172.76256289 </i>
    <i name="e_wo_entrp">   -172.76256289 </i>
    <i name="e_0_energy">   -172.76256289 </i>
   </energy>
  </scstep>
  <scstep>
   <time name="total">    1.44    1.44</time>
   <energy>
    <i name="e_fr_energy">   -172.76256330 </i>
    <i name="e_wo_entrp">   -172.76256330 </i>
    <i name="e_0_energy">   -172.76256330 </i>
   </energy>
  </scstep>
  <scstep>
   <time name="total">    1.45    1.45</time>
   <energy>
    <i name="e_fr_energy">   -172.76256310 </i>
    <i name="e_wo_entrp">   -172.76256310 </i>
    <i name="e_0_energy">   -172.76256310 </i>
   </energy>
  </scstep>
  <scstep>
   <time name="total">   18.19    3.87</time>
   <energy>
    <i name="e_fr_energy">   -182.14689429 </i>
    <i name="e_wo_entrp">   -182.14689429 </i>
    <i name="e_0_energy">   -182.14689429 </i>
   </energy>
  </scstep>
  <scstep>
   <time name="total">   17.69    3.37</time>
   <energy>
    <i name="e_fr_energy">   -172.55649570 </i>
    <i name="e_wo_entrp">   -172.55649570 </i>
    <i name="e_0_energy">   -172.55649570 </i>
   </energy>
  </scstep>
  <scstep>
   <time name="total">   17.78    3.41</time>
   <energy>
    <i name="e_fr_energy">   -172.70908194 </i>
    <i name="e_wo_entrp">   -172.70908194 </i>
    <i name="e_0_energy">   -172.70908194 </i>
   </energy>
  </scstep>
  <scstep>
   <time name="total">    1.36    1.36</time>
   <energy>
    <i name="e_fr_energy">   -172.71651039 </i>
    <i name="e_wo_entrp">   -172.71651039 </i>
    <i name="e_0_energy">   -172.71651039 </i>
   </energy>
  </scstep>
  <scstep>
   <time name="total">    1.37    1.37</time>
   <energy>
    <i name="e_fr_energy">   -172.71670402 </i>
    <i name="e_wo_entrp">   -172.71670402 </i>
    <i name="e_0_energy">   -172.71670402 </i>
   </energy>
  </scstep>
  <scstep>
   <time name="total">    1.40    1.40</time>
   <energy>
    <i name="e_fr_energy">   -172.71671697 </i>
    <i name="e_wo_entrp">   -172.71671697 </i>
    <i name="e_0_energy">   -172.71671697 </i>
   </energy>
  </scstep>
  <scstep>
   <time name="total">    1.42    1.43</time>
   <energy>
    <i name="e_fr_energy">   -172.71672256 </i>
    <i name="e_wo_entrp">   -172.71672256 </i>
    <i name="e_0_energy">   -172.71672256 </i>
   </energy>
  </scstep>
  <scstep>
   <time name="total">    1.42    1.43</time>
   <energy>
    <i name="e_fr_energy">   -172.71671722 </i>
    <i name="e_wo_entrp">   -172.71671722 </i>
    <i name="e_0_energy">   -172.71671722 </i>
   </energy>
  </scstep>
  <scstep>
   <time name="total">    1.44    1.44</time>
   <energy>
    <i name="e_fr_energy">   -172.71671524 </i>
    <i name="e_wo_entrp">   -172.71671524 </i>
    <i name="e_0_energy">   -172.71671524 </i>
   </energy>
  </scstep>
  <scstep>
   <time name="total">    1.43    1.44</time>
   <energy>
    <i name="e_fr_energy">   -172.71671986 </i>
    <i name="e_wo_entrp">   -172.71671986 </i>
    <i name="e_0_energy">   -172.71671986 </i>
   </energy>
  </scstep>
  <scstep>
   <time name="total">    2.23    1.77</time>
   <energy>
    <i name="e_fr_energy">     -0.48311400 </i>
    <i name="e_wo_entrp">     -0.48311400 </i>
    <i name="e_0_energy">     -0.48311400 </i>
   </energy>
  </scstep>
  <scstep>
   <time name="total">    2.23    1.77</time>
   <energy>
    <i name="e_fr_energy">     -0.48537195 </i>
    <i name="e_wo_entrp">     -0.48537195 </i>
    <i name="e_0_energy">     -0.48537195 </i>
   </energy>
  </scstep>
  <scstep>
   <time name="total">    2.23    1.78</time>
   <energy>
    <i name="e_fr_energy">     -0.48555901 </i>
    <i name="e_wo_entrp">     -0.48555901 </i>
    <i name="e_0_energy">     -0.48555901 </i>
   </energy>
  </scstep>
  <scstep>
   <time name="total">    2.25    1.79</time>
   <energy>
    <i name="e_fr_energy">     -0.48556757 </i>
    <i name="e_wo_entrp">     -0.48556757 </i>
    <i name="e_0_energy">     -0.48556757 </i>
   </energy>
  </scstep>
  <scstep>
   <time name="total">    2.25    1.79</time>
   <energy>
    <i name="e_fr_energy">     -0.48556787 </i>
    <i name="e_wo_entrp">     -0.48556787 </i>
    <i name="e_0_energy">     -0.48556787 </i>
   </energy>
  </scstep>
  <scstep>
   <time name="total">    2.19    1.73</time>
   <energy>
    <i name="e_fr_energy">     -0.48556789 </i>
    <i name="e_wo_entrp">     -0.48556789 </i>
    <i name="e_0_energy">     -0.48556789 </i>
   </energy>
  </scstep>
  <scstep>
   <time name="total">    2.12    1.66</time>
   <energy>
    <i name="e_fr_energy">     -0.48556789 </i>
    <i name="e_wo_entrp">     -0.48556789 </i>
    <i name="e_0_energy">     -0.48556789 </i>
   </energy>
  </scstep>
  <scstep>
   <time name="total">    2.11    1.65</time>
   <energy>
    <i name="e_fr_energy">     -0.48556789 </i>
    <i name="e_wo_entrp">     -0.48556789 </i>
    <i name="e_0_energy">     -0.48556789 </i>
   </energy>
  </scstep>
  <scstep>
   <time name="total">    2.10    1.64</time>
   <energy>
    <i name="e_fr_energy">     -0.48556789 </i>
    <i name="e_wo_entrp">     -0.48556789 </i>
    <i name="e_0_energy">     -0.48556789 </i>
   </energy>
  </scstep>
  <scstep>
   <time name="total">    2.22    1.76</time>
   <energy>
    <i name="e_fr_energy">     -0.48315535 </i>
    <i name="e_wo_entrp">     -0.48315535 </i>
    <i name="e_0_energy">     -0.48315535 </i>
   </energy>
  </scstep>
  <scstep>
   <time name="total">    2.24    1.77</time>
   <energy>
    <i name="e_fr_energy">     -0.48537008 </i>
    <i name="e_wo_entrp">     -0.48537008 </i>
    <i name="e_0_energy">     -0.48537008 </i>
   </energy>
  </scstep>
  <scstep>
   <time name="total">    2.23    1.77</time>
   <energy>
    <i name="e_fr_energy">     -0.48555897 </i>
    <i name="e_wo_entrp">     -0.48555897 </i>
    <i name="e_0_energy">     -0.48555897 </i>
   </energy>
  </scstep>
  <scstep>
   <time name="total">    2.35    1.90</time>
   <energy>
    <i name="e_fr_energy">     -0.48556766 </i>
    <i name="e_wo_entrp">     -0.48556766 </i>
    <i name="e_0_energy">     -0.48556766 </i>
   </energy>
  </scstep>
  <scstep>
   <time name="total">    2.24    1.79</time>
   <energy>
    <i name="e_fr_energy">     -0.48556797 </i>
    <i name="e_wo_entrp">     -0.48556797 </i>
    <i name="e_0_energy">     -0.48556797 </i>
   </energy>
  </scstep>
  <scstep>
   <time name="total">    2.19    1.73</time>
   <energy>
    <i name="e_fr_energy">     -0.48556799 </i>
    <i name="e_wo_entrp">     -0.48556799 </i>
    <i name="e_0_energy">     -0.48556799 </i>
   </energy>
  </scstep>
  <scstep>
   <time name="total">    2.16    1.67</time>
   <energy>
    <i name="e_fr_energy">     -0.48556799 </i>
    <i name="e_wo_entrp">     -0.48556799 </i>
    <i name="e_0_energy">     -0.48556799 </i>
   </energy>
  </scstep>
  <scstep>
   <time name="total">    2.10    1.64</time>
   <energy>
    <i name="e_fr_energy">     -0.48556799 </i>
    <i name="e_wo_entrp">     -0.48556799 </i>
    <i name="e_0_energy">     -0.48556799 </i>
   </energy>
  </scstep>
  <scstep>
   <time name="total">    2.10    1.64</time>
   <energy>
    <i name="e_fr_energy">     -0.48556799 </i>
    <i name="e_wo_entrp">     -0.48556799 </i>
    <i name="e_0_energy">     -0.48556799 </i>
   </energy>
  </scstep>
  <scstep>
   <time name="total">    2.22    1.76</time>
   <energy>
    <i name="e_fr_energy">     -0.48761122 </i>
    <i name="e_wo_entrp">     -0.48761122 </i>
    <i name="e_0_energy">     -0.48761122 </i>
   </energy>
  </scstep>
  <scstep>
   <time name="total">    2.20    1.74</time>
   <energy>
    <i name="e_fr_energy">     -0.48965552 </i>
    <i name="e_wo_entrp">     -0.48965552 </i>
    <i name="e_0_energy">     -0.48965552 </i>
   </energy>
  </scstep>
  <scstep>
   <time name="total">    2.21    1.76</time>
   <energy>
    <i name="e_fr_energy">     -0.48984648 </i>
    <i name="e_wo_entrp">     -0.48984648 </i>
    <i name="e_0_energy">     -0.48984648 </i>
   </energy>
  </scstep>
  <scstep>
   <time name="total">    2.24    1.78</time>
   <energy>
    <i name="e_fr_energy">     -0.48985540 </i>
    <i name="e_wo_entrp">     -0.48985540 </i>
    <i name="e_0_energy">     -0.48985540 </i>
   </energy>
  </scstep>
  <scstep>
   <time name="total">    2.23    1.78</time>
   <energy>
    <i name="e_fr_energy">     -0.48985571 </i>
    <i name="e_wo_entrp">     -0.48985571 </i>
    <i name="e_0_energy">     -0.48985571 </i>
   </energy>
  </scstep>
  <scstep>
   <time name="total">    2.17    1.71</time>
   <energy>
    <i name="e_fr_energy">     -0.48985573 </i>
    <i name="e_wo_entrp">     -0.48985573 </i>
    <i name="e_0_energy">     -0.48985573 </i>
   </energy>
  </scstep>
  <scstep>
   <time name="total">    2.10    1.65</time>
   <energy>
    <i name="e_fr_energy">     -0.48985573 </i>
    <i name="e_wo_entrp">     -0.48985573 </i>
    <i name="e_0_energy">     -0.48985573 </i>
   </energy>
  </scstep>
  <scstep>
   <time name="total">    2.08    1.62</time>
   <energy>
    <i name="e_fr_energy">     -0.48985573 </i>
    <i name="e_wo_entrp">     -0.48985573 </i>
    <i name="e_0_energy">     -0.48985573 </i>
   </energy>
  </scstep>
  <scstep>
   <time name="total">    2.08    1.62</time>
   <energy>
    <i name="e_fr_energy">     -0.48985573 </i>
    <i name="e_wo_entrp">     -0.48985573 </i>
    <i name="e_0_energy">     -0.48985573 </i>
   </energy>
  </scstep>
  <scstep>
   <time name="total">    2.07    1.61</time>
   <energy>
    <i name="e_fr_energy">     -0.48985573 </i>
    <i name="e_wo_entrp">     -0.48985573 </i>
    <i name="e_0_energy">     -0.48985573 </i>
   </energy>
  </scstep>
  <varray name="dielectric_ipa" >
   <v>       2.58976260      -0.00020973       0.00009575 </v>
   <v>      -0.00020671       2.58975908      -0.00000223 </v>
   <v>       0.00009493      -0.00000388       2.60380354 </v>
  </varray>
  <kpoints>
   <generation param="Gamma">
    <v type="int" name="divisions">       4        4        4 </v>
    <v name="usershift">      0.00000000       0.00000000       0.00000000 </v>
    <v name="genvec1">      0.25000000       0.00000000       0.00000000 </v>
    <v name="genvec2">      0.00000000       0.25000000       0.00000000 </v>
    <v name="genvec3">      0.00000000       0.00000000       0.25000000 </v>
    <v name="shift">      0.00000000       0.00000000       0.00000000 </v>
   </generation>
   <varray name="kpointlist" >
    <v>       0.00000000       0.00000000       0.00000000 </v>
    <v>       0.25000000       0.00000000       0.00000000 </v>
    <v>       0.00000000       0.25000000       0.00000000 </v>
    <v>      -0.25000000       0.25000000       0.00000000 </v>
    <v>       0.50000000       0.00000000       0.00000000 </v>
    <v>       0.00000000       0.50000000       0.00000000 </v>
    <v>       0.50000000       0.50000000       0.00000000 </v>
    <v>       0.25000000       0.25000000       0.00000000 </v>
    <v>      -0.25000000       0.50000000       0.00000000 </v>
    <v>       0.50000000       0.25000000       0.00000000 </v>
    <v>       0.00000000       0.00000000       0.25000000 </v>
    <v>       0.25000000       0.00000000       0.25000000 </v>
    <v>       0.00000000       0.25000000       0.25000000 </v>
    <v>      -0.25000000       0.25000000       0.25000000 </v>
    <v>      -0.25000000       0.00000000       0.25000000 </v>
    <v>       0.00000000      -0.25000000       0.25000000 </v>
    <v>       0.25000000      -0.25000000       0.25000000 </v>
    <v>       0.50000000       0.00000000       0.25000000 </v>
    <v>       0.00000000       0.50000000       0.25000000 </v>
    <v>       0.50000000       0.50000000       0.25000000 </v>
    <v>       0.25000000       0.25000000       0.25000000 </v>
    <v>      -0.25000000       0.50000000       0.25000000 </v>
    <v>       0.50000000       0.25000000       0.25000000 </v>
    <v>      -0.25000000      -0.25000000       0.25000000 </v>
    <v>       0.25000000       0.50000000       0.25000000 </v>
    <v>       0.50000000      -0.25000000       0.25000000 </v>
    <v>       0.00000000       0.00000000       0.50000000 </v>
    <v>       0.25000000       0.00000000       0.50000000 </v>
    <v>       0.00000000       0.25000000       0.50000000 </v>
    <v>      -0.25000000       0.25000000       0.50000000 </v>
    <v>       0.50000000       0.00000000       0.50000000 </v>
    <v>       0.00000000       0.50000000       0.50000000 </v>
    <v>       0.50000000       0.50000000       0.50000000 </v>
    <v>       0.25000000       0.25000000       0.50000000 </v>
    <v>      -0.25000000       0.50000000       0.50000000 </v>
    <v>       0.50000000       0.25000000       0.50000000 </v>
   </varray>
   <varray name="weights" >
    <v>       0.01562500 </v>
    <v>       0.03125000 </v>
    <v>       0.03125000 </v>
    <v>       0.03125000 </v>
    <v>       0.01562500 </v>
    <v>       0.01562500 </v>
    <v>       0.01562500 </v>
    <v>       0.03125000 </v>
    <v>       0.03125000 </v>
    <v>       0.03125000 </v>
    <v>       0.03125000 </v>
    <v>       0.03125000 </v>
    <v>       0.03125000 </v>
    <v>       0.03125000 </v>
    <v>       0.03125000 </v>
    <v>       0.03125000 </v>
    <v>       0.03125000 </v>
    <v>       0.03125000 </v>
    <v>       0.03125000 </v>
    <v>       0.03125000 </v>
    <v>       0.03125000 </v>
    <v>       0.03125000 </v>
    <v>       0.03125000 </v>
    <v>       0.03125000 </v>
    <v>       0.03125000 </v>
    <v>       0.03125000 </v>
    <v>       0.01562500 </v>
    <v>       0.03125000 </v>
    <v>       0.03125000 </v>
    <v>       0.03125000 </v>
    <v>       0.01562500 </v>
    <v>       0.01562500 </v>
    <v>       0.01562500 </v>
    <v>       0.03125000 </v>
    <v>       0.03125000 </v>
    <v>       0.03125000 </v>
   </varray>
  </kpoints>
  <scstep>
   <time name="total">    2.23    1.76</time>
   <energy>
    <i name="e_fr_energy">     -0.48311400 </i>
    <i name="e_wo_entrp">     -0.48311400 </i>
    <i name="e_0_energy">     -0.48311400 </i>
   </energy>
  </scstep>
  <scstep>
   <time name="total">    2.36    1.84</time>
   <energy>
    <i name="e_fr_energy">     -0.48537195 </i>
    <i name="e_wo_entrp">     -0.48537195 </i>
    <i name="e_0_energy">     -0.48537195 </i>
   </energy>
  </scstep>
  <scstep>
   <time name="total">    2.32    1.84</time>
   <energy>
    <i name="e_fr_energy">     -0.46517796 </i>
    <i name="e_wo_entrp">     -0.46517796 </i>
    <i name="e_0_energy">     -0.46517796 </i>
   </energy>
  </scstep>
  <scstep>
   <time name="total">    2.34    1.86</time>
   <energy>
    <i name="e_fr_energy">     -0.47597321 </i>
    <i name="e_wo_entrp">     -0.47597321 </i>
    <i name="e_0_energy">     -0.47597321 </i>
   </energy>
  </scstep>
  <scstep>
   <time name="total">    2.41    1.86</time>
   <energy>
    <i name="e_fr_energy">     -0.49371795 </i>
    <i name="e_wo_entrp">     -0.49371795 </i>
    <i name="e_0_energy">     -0.49371795 </i>
   </energy>
  </scstep>
  <scstep>
   <time name="total">    2.33    1.84</time>
   <energy>
    <i name="e_fr_energy">     -0.49664495 </i>
    <i name="e_wo_entrp">     -0.49664495 </i>
    <i name="e_0_energy">     -0.49664495 </i>
   </energy>
  </scstep>
  <scstep>
   <time name="total">    2.37    1.89</time>
   <energy>
    <i name="e_fr_energy">     -0.49688393 </i>
    <i name="e_wo_entrp">     -0.49688393 </i>
    <i name="e_0_energy">     -0.49688393 </i>
   </energy>
  </scstep>
  <scstep>
   <time name="total">    2.35    1.86</time>
   <energy>
    <i name="e_fr_energy">     -0.49711455 </i>
    <i name="e_wo_entrp">     -0.49711455 </i>
    <i name="e_0_energy">     -0.49711455 </i>
   </energy>
  </scstep>
  <scstep>
   <time name="total">    2.35    1.87</time>
   <energy>
    <i name="e_fr_energy">     -0.49717798 </i>
    <i name="e_wo_entrp">     -0.49717798 </i>
    <i name="e_0_energy">     -0.49717798 </i>
   </energy>
  </scstep>
  <scstep>
   <time name="total">    2.38    1.90</time>
   <energy>
    <i name="e_fr_energy">     -0.49717218 </i>
    <i name="e_wo_entrp">     -0.49717218 </i>
    <i name="e_0_energy">     -0.49717218 </i>
   </energy>
  </scstep>
  <scstep>
   <time name="total">    2.44    1.93</time>
   <energy>
    <i name="e_fr_energy">     -0.49717371 </i>
    <i name="e_wo_entrp">     -0.49717371 </i>
    <i name="e_0_energy">     -0.49717371 </i>
   </energy>
  </scstep>
  <scstep>
   <time name="total">    2.38    1.89</time>
   <energy>
    <i name="e_fr_energy">     -0.49717379 </i>
    <i name="e_wo_entrp">     -0.49717379 </i>
    <i name="e_0_energy">     -0.49717379 </i>
   </energy>
  </scstep>
  <scstep>
   <time name="total">    2.37    1.89</time>
   <energy>
    <i name="e_fr_energy">     -0.49717356 </i>
    <i name="e_wo_entrp">     -0.49717356 </i>
    <i name="e_0_energy">     -0.49717356 </i>
   </energy>
  </scstep>
  <scstep>
   <time name="total">    2.43    1.94</time>
   <energy>
    <i name="e_fr_energy">     -0.49717364 </i>
    <i name="e_wo_entrp">     -0.49717364 </i>
    <i name="e_0_energy">     -0.49717364 </i>
   </energy>
  </scstep>
  <kpoints>
   <generation param="Gamma">
    <v type="int" name="divisions">       4        4        4 </v>
    <v name="usershift">      0.00000000       0.00000000       0.00000000 </v>
    <v name="genvec1">      0.25000000       0.00000000       0.00000000 </v>
    <v name="genvec2">      0.00000000       0.25000000       0.00000000 </v>
    <v name="genvec3">      0.00000000       0.00000000       0.25000000 </v>
    <v name="shift">      0.00000000       0.00000000       0.00000000 </v>
   </generation>
   <varray name="kpointlist" >
    <v>       0.00000000       0.00000000       0.00000000 </v>
    <v>       0.25000000       0.00000000       0.00000000 </v>
    <v>       0.00000000       0.25000000       0.00000000 </v>
    <v>      -0.25000000       0.25000000       0.00000000 </v>
    <v>       0.50000000       0.00000000       0.00000000 </v>
    <v>       0.00000000       0.50000000       0.00000000 </v>
    <v>       0.50000000       0.50000000       0.00000000 </v>
    <v>       0.25000000       0.25000000       0.00000000 </v>
    <v>      -0.25000000       0.50000000       0.00000000 </v>
    <v>       0.50000000       0.25000000       0.00000000 </v>
    <v>       0.00000000       0.00000000       0.25000000 </v>
    <v>       0.25000000       0.00000000       0.25000000 </v>
    <v>       0.00000000       0.25000000       0.25000000 </v>
    <v>      -0.25000000       0.25000000       0.25000000 </v>
    <v>      -0.25000000       0.00000000       0.25000000 </v>
    <v>       0.00000000      -0.25000000       0.25000000 </v>
    <v>       0.25000000      -0.25000000       0.25000000 </v>
    <v>       0.50000000       0.00000000       0.25000000 </v>
    <v>       0.00000000       0.50000000       0.25000000 </v>
    <v>       0.50000000       0.50000000       0.25000000 </v>
    <v>       0.25000000       0.25000000       0.25000000 </v>
    <v>      -0.25000000       0.50000000       0.25000000 </v>
    <v>       0.50000000       0.25000000       0.25000000 </v>
    <v>      -0.25000000      -0.25000000       0.25000000 </v>
    <v>       0.25000000       0.50000000       0.25000000 </v>
    <v>       0.50000000      -0.25000000       0.25000000 </v>
    <v>       0.00000000       0.00000000       0.50000000 </v>
    <v>       0.25000000       0.00000000       0.50000000 </v>
    <v>       0.00000000       0.25000000       0.50000000 </v>
    <v>      -0.25000000       0.25000000       0.50000000 </v>
    <v>       0.50000000       0.00000000       0.50000000 </v>
    <v>       0.00000000       0.50000000       0.50000000 </v>
    <v>       0.50000000       0.50000000       0.50000000 </v>
    <v>       0.25000000       0.25000000       0.50000000 </v>
    <v>      -0.25000000       0.50000000       0.50000000 </v>
    <v>       0.50000000       0.25000000       0.50000000 </v>
   </varray>
   <varray name="weights" >
    <v>       0.01562500 </v>
    <v>       0.03125000 </v>
    <v>       0.03125000 </v>
    <v>       0.03125000 </v>
    <v>       0.01562500 </v>
    <v>       0.01562500 </v>
    <v>       0.01562500 </v>
    <v>       0.03125000 </v>
    <v>       0.03125000 </v>
    <v>       0.03125000 </v>
    <v>       0.03125000 </v>
    <v>       0.03125000 </v>
    <v>       0.03125000 </v>
    <v>       0.03125000 </v>
    <v>       0.03125000 </v>
    <v>       0.03125000 </v>
    <v>       0.03125000 </v>
    <v>       0.03125000 </v>
    <v>       0.03125000 </v>
    <v>       0.03125000 </v>
    <v>       0.03125000 </v>
    <v>       0.03125000 </v>
    <v>       0.03125000 </v>
    <v>       0.03125000 </v>
    <v>       0.03125000 </v>
    <v>       0.03125000 </v>
    <v>       0.01562500 </v>
    <v>       0.03125000 </v>
    <v>       0.03125000 </v>
    <v>       0.03125000 </v>
    <v>       0.01562500 </v>
    <v>       0.01562500 </v>
    <v>       0.01562500 </v>
    <v>       0.03125000 </v>
    <v>       0.03125000 </v>
    <v>       0.03125000 </v>
   </varray>
  </kpoints>
  <scstep>
   <time name="total">    2.22    1.76</time>
   <energy>
    <i name="e_fr_energy">     -0.48315535 </i>
    <i name="e_wo_entrp">     -0.48315535 </i>
    <i name="e_0_energy">     -0.48315535 </i>
   </energy>
  </scstep>
  <scstep>
   <time name="total">    2.30    1.83</time>
   <energy>
    <i name="e_fr_energy">     -0.48537008 </i>
    <i name="e_wo_entrp">     -0.48537008 </i>
    <i name="e_0_energy">     -0.48537008 </i>
   </energy>
  </scstep>
  <scstep>
   <time name="total">    2.39    1.91</time>
   <energy>
    <i name="e_fr_energy">     -0.46514764 </i>
    <i name="e_wo_entrp">     -0.46514764 </i>
    <i name="e_0_energy">     -0.46514764 </i>
   </energy>
  </scstep>
  <scstep>
   <time name="total">    2.35    1.87</time>
   <energy>
    <i name="e_fr_energy">     -0.47599884 </i>
    <i name="e_wo_entrp">     -0.47599884 </i>
    <i name="e_0_energy">     -0.47599884 </i>
   </energy>
  </scstep>
  <scstep>
   <time name="total">    2.35    1.87</time>
   <energy>
    <i name="e_fr_energy">     -0.49373065 </i>
    <i name="e_wo_entrp">     -0.49373065 </i>
    <i name="e_0_energy">     -0.49373065 </i>
   </energy>
  </scstep>
  <scstep>
   <time name="total">    2.32    1.83</time>
   <energy>
    <i name="e_fr_energy">     -0.49664684 </i>
    <i name="e_wo_entrp">     -0.49664684 </i>
    <i name="e_0_energy">     -0.49664684 </i>
   </energy>
  </scstep>
  <scstep>
   <time name="total">    2.34    1.86</time>
   <energy>
    <i name="e_fr_energy">     -0.49689033 </i>
    <i name="e_wo_entrp">     -0.49689033 </i>
    <i name="e_0_energy">     -0.49689033 </i>
   </energy>
  </scstep>
  <scstep>
   <time name="total">    2.33    1.86</time>
   <energy>
    <i name="e_fr_energy">     -0.49712119 </i>
    <i name="e_wo_entrp">     -0.49712119 </i>
    <i name="e_0_energy">     -0.49712119 </i>
   </energy>
  </scstep>
  <scstep>
   <time name="total">    2.35    1.87</time>
   <energy>
    <i name="e_fr_energy">     -0.49718631 </i>
    <i name="e_wo_entrp">     -0.49718631 </i>
    <i name="e_0_energy">     -0.49718631 </i>
   </energy>
  </scstep>
  <scstep>
   <time name="total">    2.37    1.90</time>
   <energy>
    <i name="e_fr_energy">     -0.49718210 </i>
    <i name="e_wo_entrp">     -0.49718210 </i>
    <i name="e_0_energy">     -0.49718210 </i>
   </energy>
  </scstep>
  <scstep>
   <time name="total">    2.40    1.91</time>
   <energy>
    <i name="e_fr_energy">     -0.49718320 </i>
    <i name="e_wo_entrp">     -0.49718320 </i>
    <i name="e_0_energy">     -0.49718320 </i>
   </energy>
  </scstep>
  <scstep>
   <time name="total">    2.33    1.85</time>
   <energy>
    <i name="e_fr_energy">     -0.49718314 </i>
    <i name="e_wo_entrp">     -0.49718314 </i>
    <i name="e_0_energy">     -0.49718314 </i>
   </energy>
  </scstep>
  <scstep>
   <time name="total">    2.33    1.85</time>
   <energy>
    <i name="e_fr_energy">     -0.49718311 </i>
    <i name="e_wo_entrp">     -0.49718311 </i>
    <i name="e_0_energy">     -0.49718311 </i>
   </energy>
  </scstep>
  <scstep>
   <time name="total">    2.38    1.90</time>
   <energy>
    <i name="e_fr_energy">     -0.49718304 </i>
    <i name="e_wo_entrp">     -0.49718304 </i>
    <i name="e_0_energy">     -0.49718304 </i>
   </energy>
  </scstep>
  <kpoints>
   <generation param="Gamma">
    <v type="int" name="divisions">       4        4        4 </v>
    <v name="usershift">      0.00000000       0.00000000       0.00000000 </v>
    <v name="genvec1">      0.25000000       0.00000000       0.00000000 </v>
    <v name="genvec2">      0.00000000       0.25000000       0.00000000 </v>
    <v name="genvec3">      0.00000000       0.00000000       0.25000000 </v>
    <v name="shift">      0.00000000       0.00000000       0.00000000 </v>
   </generation>
   <varray name="kpointlist" >
    <v>       0.00000000       0.00000000       0.00000000 </v>
    <v>       0.25000000       0.00000000       0.00000000 </v>
    <v>       0.00000000       0.25000000       0.00000000 </v>
    <v>      -0.25000000       0.25000000       0.00000000 </v>
    <v>       0.50000000       0.00000000       0.00000000 </v>
    <v>       0.00000000       0.50000000       0.00000000 </v>
    <v>       0.50000000       0.50000000       0.00000000 </v>
    <v>       0.25000000       0.25000000       0.00000000 </v>
    <v>      -0.25000000       0.50000000       0.00000000 </v>
    <v>       0.50000000       0.25000000       0.00000000 </v>
    <v>       0.00000000       0.00000000       0.25000000 </v>
    <v>       0.25000000       0.00000000       0.25000000 </v>
    <v>       0.00000000       0.25000000       0.25000000 </v>
    <v>      -0.25000000       0.25000000       0.25000000 </v>
    <v>      -0.25000000       0.00000000       0.25000000 </v>
    <v>       0.00000000      -0.25000000       0.25000000 </v>
    <v>       0.25000000      -0.25000000       0.25000000 </v>
    <v>       0.50000000       0.00000000       0.25000000 </v>
    <v>       0.00000000       0.50000000       0.25000000 </v>
    <v>       0.50000000       0.50000000       0.25000000 </v>
    <v>       0.25000000       0.25000000       0.25000000 </v>
    <v>      -0.25000000       0.50000000       0.25000000 </v>
    <v>       0.50000000       0.25000000       0.25000000 </v>
    <v>      -0.25000000      -0.25000000       0.25000000 </v>
    <v>       0.25000000       0.50000000       0.25000000 </v>
    <v>       0.50000000      -0.25000000       0.25000000 </v>
    <v>       0.00000000       0.00000000       0.50000000 </v>
    <v>       0.25000000       0.00000000       0.50000000 </v>
    <v>       0.00000000       0.25000000       0.50000000 </v>
    <v>      -0.25000000       0.25000000       0.50000000 </v>
    <v>       0.50000000       0.00000000       0.50000000 </v>
    <v>       0.00000000       0.50000000       0.50000000 </v>
    <v>       0.50000000       0.50000000       0.50000000 </v>
    <v>       0.25000000       0.25000000       0.50000000 </v>
    <v>      -0.25000000       0.50000000       0.50000000 </v>
    <v>       0.50000000       0.25000000       0.50000000 </v>
   </varray>
   <varray name="weights" >
    <v>       0.01562500 </v>
    <v>       0.03125000 </v>
    <v>       0.03125000 </v>
    <v>       0.03125000 </v>
    <v>       0.01562500 </v>
    <v>       0.01562500 </v>
    <v>       0.01562500 </v>
    <v>       0.03125000 </v>
    <v>       0.03125000 </v>
    <v>       0.03125000 </v>
    <v>       0.03125000 </v>
    <v>       0.03125000 </v>
    <v>       0.03125000 </v>
    <v>       0.03125000 </v>
    <v>       0.03125000 </v>
    <v>       0.03125000 </v>
    <v>       0.03125000 </v>
    <v>       0.03125000 </v>
    <v>       0.03125000 </v>
    <v>       0.03125000 </v>
    <v>       0.03125000 </v>
    <v>       0.03125000 </v>
    <v>       0.03125000 </v>
    <v>       0.03125000 </v>
    <v>       0.03125000 </v>
    <v>       0.03125000 </v>
    <v>       0.01562500 </v>
    <v>       0.03125000 </v>
    <v>       0.03125000 </v>
    <v>       0.03125000 </v>
    <v>       0.01562500 </v>
    <v>       0.01562500 </v>
    <v>       0.01562500 </v>
    <v>       0.03125000 </v>
    <v>       0.03125000 </v>
    <v>       0.03125000 </v>
   </varray>
  </kpoints>
  <scstep>
   <time name="total">    2.23    1.77</time>
   <energy>
    <i name="e_fr_energy">     -0.48761122 </i>
    <i name="e_wo_entrp">     -0.48761122 </i>
    <i name="e_0_energy">     -0.48761122 </i>
   </energy>
  </scstep>
  <scstep>
   <time name="total">    2.29    1.82</time>
   <energy>
    <i name="e_fr_energy">     -0.48965552 </i>
    <i name="e_wo_entrp">     -0.48965552 </i>
    <i name="e_0_energy">     -0.48965552 </i>
   </energy>
  </scstep>
  <scstep>
   <time name="total">    2.31    1.83</time>
   <energy>
    <i name="e_fr_energy">     -0.47439552 </i>
    <i name="e_wo_entrp">     -0.47439552 </i>
    <i name="e_0_energy">     -0.47439552 </i>
   </energy>
  </scstep>
  <scstep>
   <time name="total">    2.32    1.84</time>
   <energy>
    <i name="e_fr_energy">     -0.48763591 </i>
    <i name="e_wo_entrp">     -0.48763591 </i>
    <i name="e_0_energy">     -0.48763591 </i>
   </energy>
  </scstep>
  <scstep>
   <time name="total">    2.31    1.83</time>
   <energy>
    <i name="e_fr_energy">     -0.50387916 </i>
    <i name="e_wo_entrp">     -0.50387916 </i>
    <i name="e_0_energy">     -0.50387916 </i>
   </energy>
  </scstep>
  <scstep>
   <time name="total">    2.27    1.79</time>
   <energy>
    <i name="e_fr_energy">     -0.50671722 </i>
    <i name="e_wo_entrp">     -0.50671722 </i>
    <i name="e_0_energy">     -0.50671722 </i>
   </energy>
  </scstep>
  <scstep>
   <time name="total">    2.34    1.86</time>
   <energy>
    <i name="e_fr_energy">     -0.50696178 </i>
    <i name="e_wo_entrp">     -0.50696178 </i>
    <i name="e_0_energy">     -0.50696178 </i>
   </energy>
  </scstep>
  <scstep>
   <time name="total">    2.34    1.85</time>
   <energy>
    <i name="e_fr_energy">     -0.50722738 </i>
    <i name="e_wo_entrp">     -0.50722738 </i>
    <i name="e_0_energy">     -0.50722738 </i>
   </energy>
  </scstep>
  <scstep>
   <time name="total">    2.34    1.86</time>
   <energy>
    <i name="e_fr_energy">     -0.50724990 </i>
    <i name="e_wo_entrp">     -0.50724990 </i>
    <i name="e_0_energy">     -0.50724990 </i>
   </energy>
  </scstep>
  <scstep>
   <time name="total">    2.38    1.89</time>
   <energy>
    <i name="e_fr_energy">     -0.50725113 </i>
    <i name="e_wo_entrp">     -0.50725113 </i>
    <i name="e_0_energy">     -0.50725113 </i>
   </energy>
  </scstep>
  <scstep>
   <time name="total">    2.38    1.90</time>
   <energy>
    <i name="e_fr_energy">     -0.50725023 </i>
    <i name="e_wo_entrp">     -0.50725023 </i>
    <i name="e_0_energy">     -0.50725023 </i>
   </energy>
  </scstep>
  <scstep>
   <time name="total">    2.30    1.82</time>
   <energy>
    <i name="e_fr_energy">     -0.50725050 </i>
    <i name="e_wo_entrp">     -0.50725050 </i>
    <i name="e_0_energy">     -0.50725050 </i>
   </energy>
  </scstep>
  <scstep>
   <time name="total">    2.35    1.86</time>
   <energy>
    <i name="e_fr_energy">     -0.50725050 </i>
    <i name="e_wo_entrp">     -0.50725050 </i>
    <i name="e_0_energy">     -0.50725050 </i>
   </energy>
  </scstep>
  <scstep>
   <time name="total">    2.32    1.84</time>
   <energy>
    <i name="e_fr_energy">     -0.50725047 </i>
    <i name="e_wo_entrp">     -0.50725047 </i>
    <i name="e_0_energy">     -0.50725047 </i>
   </energy>
  </scstep>
  <kpoints>
   <generation param="Gamma">
    <v type="int" name="divisions">       4        4        4 </v>
    <v name="usershift">      0.00000000       0.00000000       0.00000000 </v>
    <v name="genvec1">      0.25000000       0.00000000       0.00000000 </v>
    <v name="genvec2">      0.00000000       0.25000000       0.00000000 </v>
    <v name="genvec3">      0.00000000       0.00000000       0.25000000 </v>
    <v name="shift">      0.00000000       0.00000000       0.00000000 </v>
   </generation>
   <varray name="kpointlist" >
    <v>       0.00000000       0.00000000       0.00000000 </v>
    <v>       0.25000000       0.00000000       0.00000000 </v>
    <v>       0.00000000       0.25000000       0.00000000 </v>
    <v>      -0.25000000       0.25000000       0.00000000 </v>
    <v>       0.50000000       0.00000000       0.00000000 </v>
    <v>       0.00000000       0.50000000       0.00000000 </v>
    <v>       0.50000000       0.50000000       0.00000000 </v>
    <v>       0.25000000       0.25000000       0.00000000 </v>
    <v>      -0.25000000       0.50000000       0.00000000 </v>
    <v>       0.50000000       0.25000000       0.00000000 </v>
    <v>       0.00000000       0.00000000       0.25000000 </v>
    <v>       0.25000000       0.00000000       0.25000000 </v>
    <v>       0.00000000       0.25000000       0.25000000 </v>
    <v>      -0.25000000       0.25000000       0.25000000 </v>
    <v>      -0.25000000       0.00000000       0.25000000 </v>
    <v>       0.00000000      -0.25000000       0.25000000 </v>
    <v>       0.25000000      -0.25000000       0.25000000 </v>
    <v>       0.50000000       0.00000000       0.25000000 </v>
    <v>       0.00000000       0.50000000       0.25000000 </v>
    <v>       0.50000000       0.50000000       0.25000000 </v>
    <v>       0.25000000       0.25000000       0.25000000 </v>
    <v>      -0.25000000       0.50000000       0.25000000 </v>
    <v>       0.50000000       0.25000000       0.25000000 </v>
    <v>      -0.25000000      -0.25000000       0.25000000 </v>
    <v>       0.25000000       0.50000000       0.25000000 </v>
    <v>       0.50000000      -0.25000000       0.25000000 </v>
    <v>       0.00000000       0.00000000       0.50000000 </v>
    <v>       0.25000000       0.00000000       0.50000000 </v>
    <v>       0.00000000       0.25000000       0.50000000 </v>
    <v>      -0.25000000       0.25000000       0.50000000 </v>
    <v>       0.50000000       0.00000000       0.50000000 </v>
    <v>       0.00000000       0.50000000       0.50000000 </v>
    <v>       0.50000000       0.50000000       0.50000000 </v>
    <v>       0.25000000       0.25000000       0.50000000 </v>
    <v>      -0.25000000       0.50000000       0.50000000 </v>
    <v>       0.50000000       0.25000000       0.50000000 </v>
   </varray>
   <varray name="weights" >
    <v>       0.01562500 </v>
    <v>       0.03125000 </v>
    <v>       0.03125000 </v>
    <v>       0.03125000 </v>
    <v>       0.01562500 </v>
    <v>       0.01562500 </v>
    <v>       0.01562500 </v>
    <v>       0.03125000 </v>
    <v>       0.03125000 </v>
    <v>       0.03125000 </v>
    <v>       0.03125000 </v>
    <v>       0.03125000 </v>
    <v>       0.03125000 </v>
    <v>       0.03125000 </v>
    <v>       0.03125000 </v>
    <v>       0.03125000 </v>
    <v>       0.03125000 </v>
    <v>       0.03125000 </v>
    <v>       0.03125000 </v>
    <v>       0.03125000 </v>
    <v>       0.03125000 </v>
    <v>       0.03125000 </v>
    <v>       0.03125000 </v>
    <v>       0.03125000 </v>
    <v>       0.03125000 </v>
    <v>       0.03125000 </v>
    <v>       0.01562500 </v>
    <v>       0.03125000 </v>
    <v>       0.03125000 </v>
    <v>       0.03125000 </v>
    <v>       0.01562500 </v>
    <v>       0.01562500 </v>
    <v>       0.01562500 </v>
    <v>       0.03125000 </v>
    <v>       0.03125000 </v>
    <v>       0.03125000 </v>
   </varray>
  </kpoints>
  <varray name="dielectric_dft" >
   <v>       2.48082337      -0.00014035       0.00007150 </v>
   <v>      -0.00013748       2.48082035      -0.00000187 </v>
   <v>       0.00007050      -0.00000348       2.51334329 </v>
  </varray>
  <varray name="epsilon" >
   <v>       2.48082337      -0.00014035       0.00007150 </v>
   <v>      -0.00013748       2.48082035      -0.00000187 </v>
   <v>       0.00007050      -0.00000348       2.51334329 </v>
  </varray>
  <kpoints>
   <generation param="Gamma">
    <v type="int" name="divisions">       4        4        4 </v>
    <v name="usershift">      0.00000000       0.00000000       0.00000000 </v>
    <v name="genvec1">      0.25000000       0.00000000       0.00000000 </v>
    <v name="genvec2">      0.00000000       0.25000000       0.00000000 </v>
    <v name="genvec3">      0.00000000       0.00000000       0.25000000 </v>
    <v name="shift">      0.00000000       0.00000000       0.00000000 </v>
   </generation>
   <varray name="kpointlist" >
    <v>       0.00000000       0.00000000       0.00000000 </v>
    <v>       0.25000000       0.00000000       0.00000000 </v>
    <v>       0.00000000       0.25000000       0.00000000 </v>
    <v>      -0.25000000       0.25000000       0.00000000 </v>
    <v>       0.50000000       0.00000000       0.00000000 </v>
    <v>       0.00000000       0.50000000       0.00000000 </v>
    <v>       0.50000000       0.50000000       0.00000000 </v>
    <v>       0.25000000       0.25000000       0.00000000 </v>
    <v>      -0.25000000       0.50000000       0.00000000 </v>
    <v>       0.50000000       0.25000000       0.00000000 </v>
    <v>       0.00000000       0.00000000       0.25000000 </v>
    <v>       0.25000000       0.00000000       0.25000000 </v>
    <v>       0.00000000       0.25000000       0.25000000 </v>
    <v>      -0.25000000       0.25000000       0.25000000 </v>
    <v>      -0.25000000       0.00000000       0.25000000 </v>
    <v>       0.00000000      -0.25000000       0.25000000 </v>
    <v>       0.25000000      -0.25000000       0.25000000 </v>
    <v>       0.50000000       0.00000000       0.25000000 </v>
    <v>       0.00000000       0.50000000       0.25000000 </v>
    <v>       0.50000000       0.50000000       0.25000000 </v>
    <v>       0.25000000       0.25000000       0.25000000 </v>
    <v>      -0.25000000       0.50000000       0.25000000 </v>
    <v>       0.50000000       0.25000000       0.25000000 </v>
    <v>      -0.25000000      -0.25000000       0.25000000 </v>
    <v>       0.25000000       0.50000000       0.25000000 </v>
    <v>       0.50000000      -0.25000000       0.25000000 </v>
    <v>       0.00000000       0.00000000       0.50000000 </v>
    <v>       0.25000000       0.00000000       0.50000000 </v>
    <v>       0.00000000       0.25000000       0.50000000 </v>
    <v>      -0.25000000       0.25000000       0.50000000 </v>
    <v>       0.50000000       0.00000000       0.50000000 </v>
    <v>       0.00000000       0.50000000       0.50000000 </v>
    <v>       0.50000000       0.50000000       0.50000000 </v>
    <v>       0.25000000       0.25000000       0.50000000 </v>
    <v>      -0.25000000       0.50000000       0.50000000 </v>
    <v>       0.50000000       0.25000000       0.50000000 </v>
   </varray>
   <varray name="weights" >
    <v>       0.01562500 </v>
    <v>       0.03125000 </v>
    <v>       0.03125000 </v>
    <v>       0.03125000 </v>
    <v>       0.01562500 </v>
    <v>       0.01562500 </v>
    <v>       0.01562500 </v>
    <v>       0.03125000 </v>
    <v>       0.03125000 </v>
    <v>       0.03125000 </v>
    <v>       0.03125000 </v>
    <v>       0.03125000 </v>
    <v>       0.03125000 </v>
    <v>       0.03125000 </v>
    <v>       0.03125000 </v>
    <v>       0.03125000 </v>
    <v>       0.03125000 </v>
    <v>       0.03125000 </v>
    <v>       0.03125000 </v>
    <v>       0.03125000 </v>
    <v>       0.03125000 </v>
    <v>       0.03125000 </v>
    <v>       0.03125000 </v>
    <v>       0.03125000 </v>
    <v>       0.03125000 </v>
    <v>       0.03125000 </v>
    <v>       0.01562500 </v>
    <v>       0.03125000 </v>
    <v>       0.03125000 </v>
    <v>       0.03125000 </v>
    <v>       0.01562500 </v>
    <v>       0.01562500 </v>
    <v>       0.01562500 </v>
    <v>       0.03125000 </v>
    <v>       0.03125000 </v>
    <v>       0.03125000 </v>
   </varray>
  </kpoints>
  <array name="born_charges" >
   <dimension dim="1">ion</dimension>
   <set>
    <v>       2.98055764      -0.00030046       0.00060573 </v>
    <v>       0.00074069       3.62050062      -0.32134228 </v>
    <v>      -0.00044677       0.27801923       3.42535357 </v>
   </set>
   <set>
    <v>       3.46042968       0.27697307       0.27823837 </v>
    <v>       0.27668775       3.14094272       0.16025758 </v>
    <v>      -0.24039252      -0.13854850       3.42572519 </v>
   </set>
   <set>
    <v>       3.46061323      -0.27725641      -0.27834844 </v>
    <v>      -0.27753758       3.14013179       0.16105842 </v>
    <v>       0.24116763      -0.13949722       3.42498458 </v>
   </set>
   <set>
    <v>      -1.31110661      -0.49340345      -0.31043447 </v>
    <v>      -0.43621983      -1.98982599      -0.67930943 </v>
    <v>      -0.24347170      -0.72177010      -1.71282539 </v>
   </set>
   <set>
    <v>      -2.22197447      -0.08971876       0.74280458 </v>
    <v>      -0.03258092      -1.07830887       0.07095566 </v>
    <v>       0.74624385       0.14994832      -1.71248452 </v>
   </set>
   <set>
    <v>      -1.41701862       0.49754999      -0.43262676 </v>
    <v>       0.55466699      -1.88361292       0.60787858 </v>
    <v>      -0.50289391       0.57167851      -1.71269395 </v>
   </set>
   <set>
    <v>      -1.31117263       0.49333636       0.30998104 </v>
    <v>       0.43600948      -1.98889166      -0.67868317 </v>
    <v>       0.24335670      -0.72114659      -1.71254136 </v>
   </set>
   <set>
    <v>      -2.22263040       0.09020974      -0.74339606 </v>
    <v>       0.03287089      -1.07815561       0.07074091 </v>
    <v>      -0.74681234       0.14987092      -1.71289187 </v>
   </set>
   <set>
    <v>      -1.41769783      -0.49739008       0.43317601 </v>
    <v>      -0.55463747      -1.88278009       0.60844372 </v>
    <v>       0.50324907       0.57144543      -1.71262625 </v>
   </set>
  </array>
  <time name="totalsc">  417.68  243.56</time>
  <eigenvalues>
   <array>
    <dimension dim="1">band</dimension>
    <dimension dim="2">kpoint</dimension>
    <dimension dim="3">spin</dimension>
    <field>eigene</field>
    <field>occ</field>
    <set>
     <set comment="spin 1">
      <set comment="kpoint 1">
       <r>  -18.1719    1.0000 </r>
       <r>  -16.6201    1.0000 </r>
       <r>  -16.6201    1.0000 </r>
       <r>  -15.9516    1.0000 </r>
       <r>  -15.9424    1.0000 </r>
       <r>  -15.9423    1.0000 </r>
       <r>   -6.8795    1.0000 </r>
       <r>   -6.8783    1.0000 </r>
       <r>   -4.1465    1.0000 </r>
       <r>   -4.0639    1.0000 </r>
       <r>   -3.9119    1.0000 </r>
       <r>   -3.9105    1.0000 </r>
       <r>   -1.6862    1.0000 </r>
       <r>   -1.6851    1.0000 </r>
       <r>   -1.3748    1.0000 </r>
[...]
       <r>    1.1197    1.0000 </r>
       <r>   10.2287    0.0000 </r>
       <r>   10.7240    0.0000 </r>
       <r>   11.0151    0.0000 </r>
       <r>   11.1998    0.0000 </r>
       <r>   11.5371    0.0000 </r>
      </set>
      <set comment="kpoint 34">
       <r>  -17.5753    1.0000 </r>
       <r>  -17.1859    1.0000 </r>
       <r>  -16.6521    1.0000 </r>
       <r>  -16.0618    1.0000 </r>
       <r>  -15.9929    1.0000 </r>
       <r>  -15.9927    1.0000 </r>
       <r>   -6.8562    1.0000 </r>
       <r>   -5.8703    1.0000 </r>
       <r>   -5.1563    1.0000 </r>
       <r>   -3.8987    1.0000 </r>
       <r>   -3.7944    1.0000 </r>
       <r>   -3.6155    1.0000 </r>
       <r>   -1.9740    1.0000 </r>
       <r>   -1.7470    1.0000 </r>
       <r>   -1.2645    1.0000 </r>
       <r>   -0.9007    1.0000 </r>
       <r>   -0.6219    1.0000 </r>
       <r>   -0.4216    1.0000 </r>
       <r>    0.1495    1.0000 </r>
       <r>    0.2563    1.0000 </r>
       <r>    0.3279    1.0000 </r>
       <r>    0.5712    1.0000 </r>
       <r>    0.7160    1.0000 </r>
       <r>    0.9239    1.0000 </r>
       <r>   10.1760    0.0000 </r>
       <r>   10.6515    0.0000 </r>
       <r>   10.9635    0.0000 </r>
       <r>   11.3053    0.0000 </r>
       <r>   11.7229    0.0000 </r>
      </set>
      <set comment="kpoint 35">
       <r>  -17.5751    1.0000 </r>
       <r>  -17.1860    1.0000 </r>
       <r>  -16.6526    1.0000 </r>
       <r>  -16.0617    1.0000 </r>
       <r>  -15.9931    1.0000 </r>
       <r>  -15.9923    1.0000 </r>
       <r>   -6.8570    1.0000 </r>
       <r>   -5.8698    1.0000 </r>
       <r>   -5.1560    1.0000 </r>
       <r>   -3.8969    1.0000 </r>
       <r>   -3.7957    1.0000 </r>
       <r>   -3.6156    1.0000 </r>
       <r>   -1.9738    1.0000 </r>
       <r>   -1.7468    1.0000 </r>
       <r>   -1.2649    1.0000 </r>
       <r>   -0.9000    1.0000 </r>
       <r>   -0.6229    1.0000 </r>
       <r>   -0.4228    1.0000 </r>
       <r>    0.1492    1.0000 </r>
       <r>    0.2552    1.0000 </r>
       <r>    0.3289    1.0000 </r>
       <r>    0.5712    1.0000 </r>
       <r>    0.7169    1.0000 </r>
       <r>    0.9243    1.0000 </r>
       <r>   10.1782    0.0000 </r>
       <r>   10.6505    0.0000 </r>
       <r>   10.9631    0.0000 </r>
       <r>   11.3045    0.0000 </r>
       <r>   11.7228    0.0000 </r>
      </set>
      <set comment="kpoint 36">
       <r>  -17.5752    1.0000 </r>
       <r>  -17.1860    1.0000 </r>
       <r>  -16.6523    1.0000 </r>
       <r>  -16.0617    1.0000 </r>
       <r>  -15.9930    1.0000 </r>
       <r>  -15.9925    1.0000 </r>
       <r>   -6.8566    1.0000 </r>
       <r>   -5.8701    1.0000 </r>
       <r>   -5.1562    1.0000 </r>
       <r>   -3.8978    1.0000 </r>
       <r>   -3.7950    1.0000 </r>
       <r>   -3.6155    1.0000 </r>
       <r>   -1.9739    1.0000 </r>
       <r>   -1.7469    1.0000 </r>
       <r>   -1.2647    1.0000 </r>
       <r>   -0.9003    1.0000 </r>
       <r>   -0.6224    1.0000 </r>
       <r>   -0.4222    1.0000 </r>
       <r>    0.1493    1.0000 </r>
       <r>    0.2557    1.0000 </r>
       <r>    0.3284    1.0000 </r>
       <r>    0.5712    1.0000 </r>
       <r>    0.7164    1.0000 </r>
       <r>    0.9241    1.0000 </r>
       <r>   10.1771    0.0000 </r>
       <r>   10.6510    0.0000 </r>
       <r>   10.9633    0.0000 </r>
       <r>   11.3049    0.0000 </r>
       <r>   11.7233    0.0000 </r>
      </set>
     </set>
    </set>
   </array>
  </eigenvalues>
  <separator name="orbital magnetization" >
   <v name="MAGDIPOLOUT">      0.00000000      0.00000000      0.00000000</v>
  </separator>
  <dos>
   <i name="efermi">      1.78483881 </i>
   <total>
    <array>
     <dimension dim="1">gridpoints</dimension>
     <dimension dim="2">spin</dimension>
     <field>energy</field>
     <field>total</field>
     <field>integrated</field>
     <set>
      <set comment="spin 1">
       <r>   -19.6805     0.0000     0.0000 </r>
       <r>   -19.5699     0.0000     0.0000 </r>
       <r>   -19.4593     0.0000     0.0000 </r>
       <r>   -19.3486     0.0000     0.0000 </r>
       <r>   -19.2380     0.0000     0.0000 </r>
       <r>   -19.1274     0.0000     0.0000 </r>
       <r>   -19.0167     0.0000     0.0000 </r>
       <r>   -18.9061     0.0000     0.0000 </r>
       <r>   -18.7955     0.0000     0.0000 </r>
       <r>   -18.6849     0.0000     0.0000 </r>
       <r>   -18.5742     0.0000     0.0000 </r>
       <r>   -18.4636     0.0000     0.0000 </r>
       <r>   -18.3530     0.0015     0.0002 </r>
       <r>   -18.2423     0.0455     0.0052 </r>
       <r>   -18.1317     0.2561     0.0335 </r>
       <r>   -18.0211     0.9593     0.1396 </r>
       <r>   -17.9105     2.1806     0.3809 </r>
       <r>   -17.7998     2.2490     0.6297 </r>
       <r>   -17.6892     3.1561     0.9788 </r>
       <r>   -17.5786     6.7082     1.7210 </r>
       <r>   -17.4679     3.7418     2.1349 </r>
       <r>   -17.3573     0.7675     2.2198 </r>
       <r>   -17.2467     1.6678     2.4043 </r>
       <r>   -17.1361     7.3341     3.2157 </r>
       <r>   -17.0254     4.7006     3.7357 </r>
       <r>   -16.9148     0.5606     3.7977 </r>
       <r>   -16.8042     0.9821     3.9064 </r>
       <r>   -16.6935     2.7468     4.2102 </r>
       <r>   -16.5829     6.4602     4.9249 </r>
       <r>   -16.4723     3.7464     5.3394 </r>
       <r>   -16.3617     1.9948     5.5601 </r>
       <r>   -16.2510     2.2037     5.8039 </r>
       <r>   -16.1404     3.0166     6.1376 </r>
       <r>   -16.0298    16.1096     7.9198 </r>
       <r>   -15.9191    27.1223    10.9202 </r>
       <r>   -15.8085     9.2251    11.9408 </r>
       <r>   -15.6979     0.5309    11.9995 </r>
       <r>   -15.5873     0.0041    12.0000 </r>
       <r>   -15.4766     0.0000    12.0000 </r>
       <r>   -15.3660     0.0000    12.0000 </r>
       <r>   -15.2554     0.0000    12.0000 </r>
       <r>   -15.1447     0.0000    12.0000 </r>
       <r>   -15.0341     0.0000    12.0000 </r>
       <r>   -14.9235     0.0000    12.0000 </r>
       <r>   -14.8129     0.0000    12.0000 </r>
       <r>   -14.7022     0.0000    12.0000 </r>
       <r>   -14.5916     0.0000    12.0000 </r>
       <r>   -14.4810     0.0000    12.0000 </r>
       <r>   -14.3704     0.0000    12.0000 </r>
       <r>   -14.2597     0.0000    12.0000 </r>
       <r>   -14.1491     0.0000    12.0000 </r>
       <r>   -14.0385     0.0000    12.0000 </r>
       <r>   -13.9278     0.0000    12.0000 </r>
       <r>   -13.8172     0.0000    12.0000 </r>
       <r>   -13.7066     0.0000    12.0000 </r>
       <r>   -13.5960     0.0000    12.0000 </r>
       <r>   -13.4853     0.0000    12.0000 </r>
       <r>   -13.3747     0.0000    12.0000 </r>
       <r>   -13.2641     0.0000    12.0000 </r>
       <r>   -13.1534     0.0000    12.0000 </r>
       <r>   -13.0428     0.0000    12.0000 </r>
       <r>   -12.9322     0.0000    12.0000 </r>
       <r>   -12.8216     0.0000    12.0000 </r>
       <r>   -12.7109     0.0000    12.0000 </r>
       <r>   -12.6003     0.0000    12.0000 </r>
       <r>   -12.4897     0.0000    12.0000 </r>
       <r>   -12.3790     0.0000    12.0000 </r>
       <r>   -12.2684     0.0000    12.0000 </r>
       <r>   -12.1578     0.0000    12.0000 </r>
       <r>   -12.0472     0.0000    12.0000 </r>
       <r>   -11.9365     0.0000    12.0000 </r>
       <r>   -11.8259     0.0000    12.0000 </r>
       <r>   -11.7153     0.0000    12.0000 </r>
       <r>   -11.6046     0.0000    12.0000 </r>
       <r>   -11.4940     0.0000    12.0000 </r>
       <r>   -11.3834     0.0000    12.0000 </r>
       <r>   -11.2728     0.0000    12.0000 </r>
       <r>   -11.1621     0.0000    12.0000 </r>
       <r>   -11.0515     0.0000    12.0000 </r>
       <r>   -10.9409     0.0000    12.0000 </r>
       <r>   -10.8302     0.0000    12.0000 </r>
       <r>   -10.7196     0.0000    12.0000 </r>
       <r>   -10.6090     0.0000    12.0000 </r>
       <r>   -10.4984     0.0000    12.0000 </r>
       <r>   -10.3877     0.0000    12.0000 </r>
       <r>   -10.2771     0.0000    12.0000 </r>
       <r>   -10.1665     0.0000    12.0000 </r>
       <r>   -10.0558     0.0000    12.0000 </r>
       <r>    -9.9452     0.0000    12.0000 </r>
       <r>    -9.8346     0.0000    12.0000 </r>
       <r>    -9.7240     0.0000    12.0000 </r>
       <r>    -9.6133     0.0000    12.0000 </r>
       <r>    -9.5027     0.0000    12.0000 </r>
       <r>    -9.3921     0.0000    12.0000 </r>
       <r>    -9.2814     0.0000    12.0000 </r>
       <r>    -9.1708     0.0000    12.0000 </r>
       <r>    -9.0602     0.0000    12.0000 </r>
       <r>    -8.9496     0.0000    12.0000 </r>
       <r>    -8.8389     0.0000    12.0000 </r>
       <r>    -8.7283     0.0000    12.0000 </r>
       <r>    -8.6177     0.0000    12.0000 </r>
       <r>    -8.5071     0.0000    12.0000 </r>
       <r>    -8.3964     0.0000    12.0000 </r>
       <r>    -8.2858     0.0000    12.0000 </r>
       <r>    -8.1752     0.0001    12.0000 </r>
       <r>    -8.0645     0.0118    12.0013 </r>
       <r>    -7.9539     0.1114    12.0136 </r>
       <r>    -7.8433     0.1385    12.0290 </r>
       <r>    -7.7327     0.0942    12.0394 </r>
       <r>    -7.6220     0.4183    12.0857 </r>
       <r>    -7.5114     0.9763    12.1937 </r>
       <r>    -7.4008     1.2327    12.3300 </r>
       <r>    -7.2901     1.9621    12.5471 </r>
       <r>    -7.1795     1.0245    12.6605 </r>
       <r>    -7.0689     1.3991    12.8152 </r>
       <r>    -6.9583     4.6317    13.3276 </r>
       <r>    -6.8476     4.7401    13.8520 </r>
       <r>    -6.7370     1.5054    14.0186 </r>
       <r>    -6.6264     0.1961    14.0403 </r>
       <r>    -6.5157     0.7036    14.1181 </r>
       <r>    -6.4051     0.7904    14.2055 </r>
       <r>    -6.2945     0.1176    14.2185 </r>
       <r>    -6.1839     0.0262    14.2214 </r>
       <r>    -6.0732     0.5306    14.2801 </r>
       <r>    -5.9626     3.4389    14.6606 </r>
       <r>    -5.8520     6.9585    15.4304 </r>
       <r>    -5.7413     2.9690    15.7588 </r>
       <r>    -5.6307     0.2009    15.7811 </r>
       <r>    -5.5201     0.0178    15.7830 </r>
       <r>    -5.4095     0.3529    15.8221 </r>
       <r>    -5.2988     0.9962    15.9323 </r>
       <r>    -5.1882     0.9270    16.0348 </r>
       <r>    -5.0776     2.1996    16.2782 </r>
       <r>    -4.9669     3.8986    16.7095 </r>
       <r>    -4.8563     2.9725    17.0383 </r>
       <r>    -4.7457     1.8734    17.2456 </r>
       <r>    -4.6351     1.8034    17.4451 </r>
       <r>    -4.5244     1.9929    17.6655 </r>
       <r>    -4.4138     0.6190    17.7340 </r>
       <r>    -4.3032     0.7507    17.8171 </r>
       <r>    -4.1925     3.0968    18.1597 </r>
       <r>    -4.0819     8.8784    19.1419 </r>
       <r>    -3.9713     9.6750    20.2122 </r>
       <r>    -3.8607     6.6536    20.9483 </r>
       <r>    -3.7500     6.7686    21.6971 </r>
       <r>    -3.6394     5.6612    22.3234 </r>
       <r>    -3.5288     5.6948    22.9534 </r>
       <r>    -3.4181     5.0865    23.5161 </r>
       <r>    -3.3075     2.6618    23.8105 </r>
       <r>    -3.1969     1.4503    23.9710 </r>
       <r>    -3.0863     0.2565    23.9994 </r>
       <r>    -2.9756     0.0058    24.0000 </r>
       <r>    -2.8650     0.0000    24.0000 </r>
       <r>    -2.7544     0.0000    24.0000 </r>
       <r>    -2.6438     0.0000    24.0000 </r>
       <r>    -2.5331     0.0000    24.0000 </r>
       <r>    -2.4225     0.0000    24.0000 </r>
       <r>    -2.3119     0.0000    24.0000 </r>
       <r>    -2.2012     0.0015    24.0002 </r>
       <r>    -2.0906     0.1638    24.0183 </r>
       <r>    -1.9800     2.6365    24.3100 </r>
       <r>    -1.8694     7.9607    25.1906 </r>
       <r>    -1.7587     8.1291    26.0899 </r>
       <r>    -1.6481     6.8177    26.8442 </r>
       <r>    -1.5375     5.3440    27.4354 </r>
       <r>    -1.4268     6.3711    28.1402 </r>
       <r>    -1.3162     8.4960    29.0801 </r>
       <r>    -1.2056     5.9409    29.7373 </r>
       <r>    -1.0950     3.8877    30.1674 </r>
       <r>    -0.9843     4.8539    30.7044 </r>
       <r>    -0.8737     8.3956    31.6332 </r>
       <r>    -0.7631     6.9360    32.4005 </r>
       <r>    -0.6524     7.3779    33.2167 </r>
       <r>    -0.5418     6.3212    33.9160 </r>
       <r>    -0.4312     6.2628    34.6089 </r>
       <r>    -0.3206     5.9511    35.2672 </r>
       <r>    -0.2099     8.0591    36.1588 </r>
       <r>    -0.0993     9.8391    37.2473 </r>
       <r>     0.0113     8.1687    38.1510 </r>
       <r>     0.1220     8.9425    39.1403 </r>
       <r>     0.2326     9.4940    40.1906 </r>
       <r>     0.3432    10.6986    41.3741 </r>
       <r>     0.4538     8.7356    42.3405 </r>
       <r>     0.5645     5.7922    42.9813 </r>
       <r>     0.6751     6.2830    43.6764 </r>
       <r>     0.7857     5.2742    44.2599 </r>
       <r>     0.8964     6.6567    44.9963 </r>
       <r>     1.0070     6.7047    45.7380 </r>
       <r>     1.1176     7.8330    46.6046 </r>
       <r>     1.2282     8.2960    47.5223 </r>
       <r>     1.3389     3.7631    47.9386 </r>
       <r>     1.4495     0.5414    47.9985 </r>
       <r>     1.5601     0.0132    48.0000 </r>
       <r>     1.6708     0.0000    48.0000 </r>
       <r>     1.7814     0.0000    48.0000 </r>
       <r>     1.8920     0.0000    48.0000 </r>
       <r>     2.0026     0.0000    48.0000 </r>
       <r>     2.1133     0.0000    48.0000 </r>
       <r>     2.2239     0.0000    48.0000 </r>
       <r>     2.3345     0.0000    48.0000 </r>
       <r>     2.4452     0.0000    48.0000 </r>
       <r>     2.5558     0.0000    48.0000 </r>
       <r>     2.6664     0.0000    48.0000 </r>
       <r>     2.7770     0.0000    48.0000 </r>
       <r>     2.8877     0.0000    48.0000 </r>
       <r>     2.9983     0.0000    48.0000 </r>
       <r>     3.1089     0.0000    48.0000 </r>
       <r>     3.2195     0.0000    48.0000 </r>
       <r>     3.3302     0.0000    48.0000 </r>
       <r>     3.4408     0.0000    48.0000 </r>
       <r>     3.5514     0.0000    48.0000 </r>
       <r>     3.6621     0.0000    48.0000 </r>
       <r>     3.7727     0.0000    48.0000 </r>
       <r>     3.8833     0.0000    48.0000 </r>
       <r>     3.9939     0.0000    48.0000 </r>
       <r>     4.1046     0.0000    48.0000 </r>
       <r>     4.2152     0.0000    48.0000 </r>
       <r>     4.3258     0.0000    48.0000 </r>
       <r>     4.4365     0.0000    48.0000 </r>
       <r>     4.5471     0.0000    48.0000 </r>
       <r>     4.6577     0.0000    48.0000 </r>
       <r>     4.7683     0.0000    48.0000 </r>
       <r>     4.8790     0.0000    48.0000 </r>
       <r>     4.9896     0.0000    48.0000 </r>
       <r>     5.1002     0.0000    48.0000 </r>
       <r>     5.2109     0.0000    48.0000 </r>
       <r>     5.3215     0.0000    48.0000 </r>
       <r>     5.4321     0.0000    48.0000 </r>
       <r>     5.5427     0.0000    48.0000 </r>
       <r>     5.6534     0.0000    48.0000 </r>
       <r>     5.7640     0.0000    48.0000 </r>
       <r>     5.8746     0.0000    48.0000 </r>
       <r>     5.9853     0.0000    48.0000 </r>
       <r>     6.0959     0.0000    48.0000 </r>
       <r>     6.2065     0.0000    48.0000 </r>
       <r>     6.3171     0.0000    48.0000 </r>
       <r>     6.4278     0.0000    48.0000 </r>
       <r>     6.5384     0.0000    48.0000 </r>
       <r>     6.6490     0.0000    48.0000 </r>
       <r>     6.7597     0.0000    48.0000 </r>
       <r>     6.8703     0.0000    48.0000 </r>
       <r>     6.9809     0.0000    48.0000 </r>
       <r>     7.0915     0.0001    48.0000 </r>
       <r>     7.2022     0.0120    48.0013 </r>
       <r>     7.3128     0.1121    48.0137 </r>
       <r>     7.4234     0.1360    48.0288 </r>
       <r>     7.5341     0.0218    48.0312 </r>
       <r>     7.6447     0.0004    48.0313 </r>
       <r>     7.7553     0.0030    48.0316 </r>
       <r>     7.8659     0.0880    48.0413 </r>
       <r>     7.9766     0.3144    48.0761 </r>
       <r>     8.0872     0.1835    48.0964 </r>
       <r>     8.1978     0.5002    48.1517 </r>
       <r>     8.3085     0.9282    48.2544 </r>
       <r>     8.4191     0.2356    48.2805 </r>
       <r>     8.5297     0.0567    48.2868 </r>
       <r>     8.6403     0.8111    48.3765 </r>
       <r>     8.7510     1.8588    48.5821 </r>
       <r>     8.8616     0.6395    48.6529 </r>
       <r>     8.9722     0.0303    48.6562 </r>
       <r>     9.0828     0.0006    48.6563 </r>
       <r>     9.1935     0.0290    48.6595 </r>
       <r>     9.3041     0.2517    48.6873 </r>
       <r>     9.4147     0.5732    48.7507 </r>
       <r>     9.5254     1.0747    48.8696 </r>
       <r>     9.6360     1.4485    49.0299 </r>
       <r>     9.7466     3.0661    49.3691 </r>
       <r>     9.8572     2.9768    49.6984 </r>
       <r>     9.9679     1.7531    49.8923 </r>
       <r>    10.0785     0.5462    49.9528 </r>
       <r>    10.1891     1.0788    50.0721 </r>
       <r>    10.2998     1.3723    50.2239 </r>
       <r>    10.4104     2.0566    50.4514 </r>
       <r>    10.5210     3.1205    50.7967 </r>
       <r>    10.6316     5.0665    51.3572 </r>
       <r>    10.7423     9.0566    52.3591 </r>
       <r>    10.8529     6.1936    53.0443 </r>
       <r>    10.9635     6.5300    53.7667 </r>
       <r>    11.0742     7.3610    54.5810 </r>
       <r>    11.1848     3.0169    54.9147 </r>
       <r>    11.2954     3.6677    55.3205 </r>
       <r>    11.4060     5.6582    55.9465 </r>
       <r>    11.5167     6.3201    56.6456 </r>
       <r>    11.6273     5.3471    57.2372 </r>
       <r>    11.7379     3.3663    57.6096 </r>
       <r>    11.8486     2.1674    57.8494 </r>
       <r>    11.9592     0.7351    57.9307 </r>
       <r>    12.0698     0.4931    57.9852 </r>
       <r>    12.1804     0.1291    57.9995 </r>
       <r>    12.2911     0.0043    58.0000 </r>
       <r>    12.4017     0.0000    58.0000 </r>
       <r>    12.5123     0.0000    58.0000 </r>
       <r>    12.6230     0.0000    58.0000 </r>
       <r>    12.7336     0.0000    58.0000 </r>
       <r>    12.8442     0.0000    58.0000 </r>
       <r>    12.9548     0.0000    58.0000 </r>
       <r>    13.0655     0.0000    58.0000 </r>
       <r>    13.1761     0.0000    58.0000 </r>
       <r>    13.2867     0.0000    58.0000 </r>
       <r>    13.3974     0.0000    58.0000 </r>
       <r>    13.5080     0.0000    58.0000 </r>
      </set>
     </set>
    </array>
   </total>
  </dos>
 </calculation>
 <structure name="finalpos" >
  <crystal>
   <varray name="basis" >
    <v>       4.87342988       0.00000000       0.00000000 </v>
    <v>      -2.43671494       4.22051408       0.00000000 </v>
    <v>       0.00000000       0.00000000       5.37418982 </v>
   </varray>
   <i name="volume">    110.53837516 </i>
   <varray name="rec_basis" >
    <v>       0.20519429       0.11846898      -0.00000000 </v>
    <v>       0.00000000       0.23693796       0.00000000 </v>
    <v>       0.00000000      -0.00000000       0.18607456 </v>
   </varray>
  </crystal>
  <varray name="positions" >
   <v>       0.46471212       0.00005835       0.66668664 </v>
   <v>       0.00002917       0.46466119       0.33332335 </v>
   <v>       0.53526612       0.53529529       0.99999001 </v>
   <v>       0.13558997       0.72411979       0.55405916 </v>
   <v>       0.27595111       0.41134597       0.22082860 </v>
   <v>       0.58830007       0.86452122       0.88767855 </v>
   <v>       0.41154054       0.27615477       0.77901495 </v>
   <v>       0.86441912       0.58833525       0.11245106 </v>
   <v>       0.72418618       0.13549697       0.44596767 </v>
  </varray>
 </structure>
</modeling>
