<?xml version="1.0" encoding="ISO-8859-1"?>
<modeling>
 <generator>
  <i name="program" type="string">vasp </i>
  <i name="version" type="string">6.4.1  </i>
  <i name="subversion" type="string">05Apr23 (build Sep  6 2023 20:49:31) complex                          parallel </i>
  <i name="platform" type="string">LinuxNV </i>
  <i name="date" type="string">2023 10 19 </i>
  <i name="time" type="string">14:05:35 </i>
 </generator>
 <incar>
  <i type="string" name="PREC">Accurate</i>
  <i type="string" name="ALGO">Fast</i>
  <i name="EDIFF">      0.00000001</i>
  <i name="ENCUT">    500.00000000</i>
  <i type="int" name="ISMEAR">     0</i>
  <i name="SIGMA">      0.10000000</i>
  <i type="logical" name="LEPSILON"> T  </i>
 </incar>
 <primitive_cell>
  <structure name="primitive_cell" >
   <crystal>
    <varray name="basis" >
     <v>       4.87342988       0.00000000       0.00000000 </v>
     <v>      -2.43671494       4.22051408       0.00000000 </v>
     <v>       0.00000000       0.00000000       5.37418982 </v>
    </varray>
    <i name="volume">    110.53837516 </i>
    <varray name="rec_basis" >
     <v>       0.20519429       0.11846898      -0.00000000 </v>
     <v>       0.00000000       0.23693796       0.00000000 </v>
     <v>       0.00000000      -0.00000000       0.18607456 </v>
    </varray>
   </crystal>
   <varray name="positions" >
    <v>       0.46471958       0.00000000       0.66666667 </v>
    <v>       0.99984718       0.46458822       0.33325859 </v>
    <v>       0.53525895       0.53541178       0.00007474 </v>
    <v>       0.13561964       0.72401853       0.55402595 </v>
    <v>       0.27602372       0.41154562       0.22093979 </v>
    <v>       0.58863065       0.86467793       0.88760058 </v>
    <v>       0.41160111       0.27598147       0.77930739 </v>
    <v>       0.86447810       0.58845438       0.11239354 </v>
    <v>       0.72395273       0.13532207       0.44573276 </v>
   </varray>
  </structure>
  <varray name="primitive_index" >
   <v type="int" >        1 </v>
   <v type="int" >        2 </v>
   <v type="int" >        3 </v>
   <v type="int" >        4 </v>
   <v type="int" >        5 </v>
   <v type="int" >        6 </v>
   <v type="int" >        7 </v>
   <v type="int" >        8 </v>
   <v type="int" >        9 </v>
  </varray>
 </primitive_cell>
 <kpoints>
  <generation param="Gamma">
   <v type="int" name="divisions">       4        4        4 </v>
   <v name="usershift">      0.00000000       0.00000000       0.00000000 </v>
   <v name="genvec1">      0.25000000       0.00000000       0.00000000 </v>
   <v name="genvec2">      0.00000000       0.25000000       0.00000000 </v>
   <v name="genvec3">      0.00000000       0.00000000       0.25000000 </v>
   <v name="shift">      0.00000000       0.00000000       0.00000000 </v>
  </generation>
  <varray name="kpointlist" >
   <v>       0.00000000       0.00000000       0.00000000 </v>
   <v>       0.25000000       0.00000000       0.00000000 </v>
   <v>       0.00000000       0.25000000       0.00000000 </v>
   <v>       0.50000000       0.00000000       0.00000000 </v>
   <v>       0.00000000       0.50000000       0.00000000 </v>
   <v>       0.25000000       0.25000000       0.00000000 </v>
   <v>       0.50000000       0.25000000       0.00000000 </v>
   <v>       0.00000000       0.00000000       0.25000000 </v>
   <v>       0.25000000       0.00000000       0.25000000 </v>
   <v>       0.00000000       0.25000000       0.25000000 </v>
   <v>      -0.25000000       0.00000000       0.25000000 </v>
   <v>       0.00000000      -0.25000000       0.25000000 </v>
   <v>       0.50000000       0.00000000       0.25000000 </v>
   <v>       0.00000000       0.50000000       0.25000000 </v>
   <v>       0.25000000       0.25000000       0.25000000 </v>
   <v>       0.50000000       0.25000000       0.25000000 </v>
   <v>      -0.25000000      -0.25000000       0.25000000 </v>
   <v>       0.00000000       0.00000000       0.50000000 </v>
   <v>       0.25000000       0.00000000       0.50000000 </v>
   <v>       0.00000000       0.25000000       0.50000000 </v>
   <v>       0.50000000       0.00000000       0.50000000 </v>
   <v>       0.00000000       0.50000000       0.50000000 </v>
   <v>       0.25000000       0.25000000       0.50000000 </v>
   <v>       0.50000000       0.25000000       0.50000000 </v>
  </varray>
  <varray name="weights" >
   <v>       0.01562500 </v>
   <v>       0.06250000 </v>
   <v>       0.03125000 </v>
   <v>       0.03125000 </v>
   <v>       0.01562500 </v>
   <v>       0.06250000 </v>
   <v>       0.03125000 </v>
   <v>       0.03125000 </v>
   <v>       0.06250000 </v>
   <v>       0.03125000 </v>
   <v>       0.06250000 </v>
   <v>       0.03125000 </v>
   <v>       0.06250000 </v>
   <v>       0.03125000 </v>
   <v>       0.06250000 </v>
   <v>       0.06250000 </v>
   <v>       0.06250000 </v>
   <v>       0.01562500 </v>
   <v>       0.06250000 </v>
   <v>       0.03125000 </v>
   <v>       0.03125000 </v>
   <v>       0.01562500 </v>
   <v>       0.06250000 </v>
   <v>       0.03125000 </v>
  </varray>
 </kpoints>
 <parameters>
  <separator name="general" >
   <i type="string" name="SYSTEM">unknown system</i>
   <i type="logical" name="LCOMPAT"> F  </i>
  </separator>
  <separator name="electronic" >
   <i type="string" name="PREC">accura</i>
   <i name="ENMAX">    500.00000000</i>
   <i name="ENAUG">    605.39200000</i>
   <i name="EDIFF">      0.00000001</i>
   <i type="int" name="IALGO">    68</i>
   <i type="int" name="IWAVPR">    10</i>
   <i type="int" name="NBANDS">    29</i>
   <i type="int" name="NBANDSLOW">    -1</i>
   <i type="int" name="NBANDSHIGH">    -1</i>
   <i name="NELECT">     48.00000000</i>
   <i type="int" name="TURBO">     0</i>
   <i type="int" name="IRESTART">     0</i>
   <i type="int" name="NREBOOT">     0</i>
   <i type="int" name="NMIN">     0</i>
   <i name="EREF">      0.00000000</i>
   <separator name="electronic smearing" >
    <i type="int" name="ISMEAR">     0</i>
    <i name="SIGMA">      0.10000000</i>
    <i name="KSPACING">      0.50000000</i>
    <i type="logical" name="KGAMMA"> T  </i>
    <i type="logical" name="KBLOWUP"> T  </i>
   </separator>
   <separator name="electronic projectors" >
    <i type="logical" name="LREAL"> F  </i>
    <v name="ROPT">      0.00000000      0.00000000</v>
    <i type="int" name="LMAXPAW">  -100</i>
    <i type="int" name="LMAXMIX">     2</i>
    <i type="logical" name="NLSPLINE"> F  </i>
   </separator>
   <separator name="electronic startup" >
    <i type="int" name="ISTART">     0</i>
    <i type="int" name="ICHARG">     2</i>
    <i type="int" name="INIWAV">     1</i>
   </separator>
   <separator name="electronic spin" >
    <i type="int" name="ISPIN">     1</i>
    <i type="logical" name="LNONCOLLINEAR"> F  </i>
    <v name="MAGMOM">      1.00000000      1.00000000      1.00000000      1.00000000      1.00000000      1.00000000      1.00000000      1.00000000      1.00000000</v>
    <i name="NUPDOWN">     -1.00000000</i>
    <i type="logical" name="LSORBIT"> F  </i>
    <v name="SAXIS">      0.00000000      0.00000000      1.00000000</v>
    <i type="logical" name="LSPIRAL"> F  </i>
    <v name="QSPIRAL">      0.00000000      0.00000000      0.00000000</v>
    <i type="logical" name="LZEROZ"> F  </i>
   </separator>
   <separator name="electronic exchange-correlation" >
    <i type="logical" name="LASPH"> F  </i>
    <i type="logical" name="LMETAGGA"> F  </i>
   </separator>
   <separator name="electronic convergence" >
    <i type="int" name="NELM">    60</i>
    <i type="int" name="NELMDL">    -5</i>
    <i type="int" name="NELMIN">     2</i>
    <i name="ENINI">    500.00000000</i>
    <separator name="electronic convergence detail" >
     <i type="logical" name="LDIAG"> T  </i>
     <i type="logical" name="LSUBROT"> F  </i>
     <i name="WEIMIN">      0.00000000</i>
     <i name="EBREAK">      0.00000000</i>
     <i name="DEPER">      0.30000000</i>
     <i type="int" name="NRMM">     4</i>
     <i name="TIME">      0.40000000</i>
    </separator>
   </separator>
   <separator name="electronic mixer" >
    <i name="AMIX">      0.40000000</i>
    <i name="BMIX">      1.00000000</i>
    <i name="AMIN">      0.10000000</i>
    <i name="AMIX_MAG">      1.60000000</i>
    <i name="BMIX_MAG">      1.00000000</i>
    <separator name="electronic mixer details" >
     <i type="int" name="IMIX">     4</i>
     <i type="logical" name="MIXFIRST"> F  </i>
     <i type="int" name="MAXMIX">   -45</i>
     <i name="WC">    100.00000000</i>
     <i type="int" name="INIMIX">     1</i>
     <i type="int" name="MIXPRE">     1</i>
     <i type="int" name="MREMOVE">     5</i>
    </separator>
   </separator>
   <separator name="electronic dipolcorrection" >
    <i type="logical" name="LDIPOL"> F  </i>
    <i type="logical" name="LMONO"> F  </i>
    <i type="int" name="IDIPOL">     0</i>
    <i name="EPSILON">      1.00000000</i>
    <v name="DIPOL">   -100.00000000   -100.00000000   -100.00000000</v>
    <i name="EFIELD">      0.00000000</i>
   </separator>
  </separator>
  <separator name="grids" >
   <i type="int" name="NGX">    36</i>
   <i type="int" name="NGY">    36</i>
   <i type="int" name="NGZ">    40</i>
   <i type="int" name="NGXF">    72</i>
   <i type="int" name="NGYF">    72</i>
   <i type="int" name="NGZF">    80</i>
   <i type="logical" name="ADDGRID"> F  </i>
  </separator>
  <separator name="ionic" >
   <i type="int" name="NSW">     0</i>
   <i type="int" name="IBRION">    -1</i>
   <i type="int" name="MDALGO">     0</i>
   <i type="int" name="ISIF">     2</i>
   <i name="PSTRESS">      0.00000000</i>
   <i name="EDIFFG">      0.00000010</i>
   <i type="int" name="NFREE">     0</i>
   <i name="POTIM">      0.50000000</i>
   <i name="SMASS">     -3.00000000</i>
   <i name="SCALEE">      1.00000000</i>
  </separator>
  <separator name="ionic md" >
   <i name="TEBEG">      0.00010000</i>
   <i name="TEEND">      0.00010000</i>
   <i type="int" name="NBLOCK">     1</i>
   <i type="int" name="KBLOCK">     1</i>
   <i type="int" name="NPACO">   256</i>
   <i name="APACO">     10.00000000</i>
  </separator>
  <separator name="symmetry" >
   <i type="int" name="ISYM">     2</i>
   <i name="SYMPREC">      0.00001000</i>
  </separator>
  <separator name="dos" >
   <i type="int" name="LORBIT">     0</i>
   <v name="RWIGS">     -1.00000000     -1.00000000</v>
   <i type="int" name="NEDOS">   301</i>
   <i name="EMIN">     10.00000000</i>
   <i name="EMAX">    -10.00000000</i>
   <i name="EFERMI">      0.00000000</i>
  </separator>
  <separator name="writing" >
   <i type="int" name="NWRITE">     2</i>
   <i type="logical" name="LWAVE"> T  </i>
   <i type="logical" name="LDOWNSAMPLE"> F  </i>
   <i type="logical" name="LCHARG"> T  </i>
   <i type="logical" name="LPARD"> F  </i>
   <i type="logical" name="LVTOT"> F  </i>
   <i type="logical" name="LVHAR"> F  </i>
   <i type="logical" name="LELF"> F  </i>
   <i type="logical" name="LOPTICS"> F  </i>
   <v name="STM">      0.00000000      0.00000000      0.00000000      0.00000000      0.00000000      0.00000000      0.00000000</v>
  </separator>
  <separator name="performance" >
   <i type="int" name="NPAR">     1</i>
   <i type="int" name="NSIM">     4</i>
   <i type="int" name="NBLK">    -1</i>
   <i type="logical" name="LPLANE"> T  </i>
   <i type="logical" name="LSCALAPACK"> T  </i>
   <i type="logical" name="LSCAAWARE"> F  </i>
   <i type="logical" name="LSCALU"> F  </i>
   <i type="logical" name="LASYNC"> F  </i>
   <i type="logical" name="LORBITALREAL"> F  </i>
  </separator>
  <separator name="miscellaneous" >
   <i type="int" name="IDIOT">     3</i>
   <i type="int" name="PHON_NSTRUCT">    -1</i>
   <i type="logical" name="LMUSIC"> F  </i>
   <v name="POMASS">     28.08500000     16.00000000</v>
   <v name="DARWINR">      0.00000000      0.00000000</v>
   <v name="DARWINV">      1.00000000      1.00000000</v>
   <i type="logical" name="LCORR"> T  </i>
  </separator>
  <i type="logical" name="GGA_COMPAT"> T  </i>
  <i type="logical" name="LBERRY"> F  </i>
  <i type="int" name="ICORELEVEL">     0</i>
  <i type="logical" name="LDAU"> F  </i>
  <i type="int" name="I_CONSTRAINED_M">     0</i>
  <separator name="electronic exchange-correlation" >
   <i type="string" name="GGA">--</i>
   <i type="int" name="VOSKOWN">     0</i>
   <i type="logical" name="LHFCALC"> F  </i>
   <i type="string" name="PRECFOCK"></i>
   <i type="logical" name="LSYMGRAD"> F  </i>
   <i type="logical" name="LHFONE"> F  </i>
   <i type="logical" name="LRHFCALC"> F  </i>
   <i type="logical" name="LTHOMAS"> F  </i>
   <i type="logical" name="LMODELHF"> F  </i>
   <i type="logical" name="LFOCKACE"> F  </i>
   <i name="ENCUT4O">     -1.00000000</i>
   <i type="int" name="EXXOEP">     0</i>
   <i type="int" name="FOURORBIT">     0</i>
   <i name="AEXX">      0.00000000</i>
   <i name="HFALPHA">      0.00000000</i>
   <i name="MCALPHA">      0.00000000</i>
   <i name="ALDAX">      1.00000000</i>
   <i name="AGGAX">      1.00000000</i>
   <i name="ALDAC">      1.00000000</i>
   <i name="AGGAC">      1.00000000</i>
   <i type="int" name="NKREDX">     1</i>
   <i type="int" name="NKREDY">     1</i>
   <i type="int" name="NKREDZ">     1</i>
   <i type="logical" name="SHIFTRED"> F  </i>
   <i type="logical" name="ODDONLY"> F  </i>
   <i type="logical" name="EVENONLY"> F  </i>
   <i type="int" name="LMAXFOCK">     0</i>
   <i type="int" name="NMAXFOCKAE">     0</i>
   <i type="logical" name="LFOCKAEDFT"> F  </i>
   <i name="HFSCREEN">      0.00000000</i>
   <i name="HFSCREENC">      0.00000000</i>
   <i type="int" name="NBANDSGWLOW">     0</i>
  </separator>
  <separator name="vdW DFT" >
   <i type="logical" name="LUSE_VDW"> F  </i>
   <i type="int" name="IVDW_NL">     1</i>
   <i type="logical" name="LSPIN_VDW"> F  </i>
   <i name="Zab_VDW">     -0.84910000</i>
   <i name="PARAM1">      0.12340000</i>
   <i name="PARAM2">      1.00000000</i>
   <i name="PARAM3">      0.00000000</i>
  </separator>
  <separator name="model GW" >
   <i type="int" name="MODEL_GW">     0</i>
   <i name="MODEL_EPS0">      7.36922501</i>
   <i name="MODEL_ALPHA">      1.00000000</i>
  </separator>
  <separator name="linear response parameters" >
   <i type="logical" name="LEPSILON"> T  </i>
   <i type="logical" name="LRPA"> F  </i>
   <i type="logical" name="LNABLA"> F  </i>
   <i type="logical" name="LVEL"> F  </i>
   <i name="CSHIFT">      0.10000000</i>
   <i name="OMEGAMAX">     -1.00000000</i>
   <i name="DEG_THRESHOLD">      0.00200000</i>
   <i name="RTIME">     -0.10000000</i>
   <i name="WPLASMAI">      0.00000000</i>
   <v name="DFIELD">      0.00000000      0.00000000      0.00000000</v>
   <v name="WPLASMA">      0.00000000      0.00000000      0.00000000      0.00000000      0.00000000      0.00000000      0.00000000      0.00000000      0.00000000</v>
  </separator>
  <separator name="orbital magnetization" >
   <i type="logical" name="NUCIND"> F  </i>
   <v name="MAGPOS">      0.00000000      0.00000000      0.00000000</v>
   <i type="logical" name="LNICSALL"> T  </i>
   <i type="logical" name="ORBITALMAG"> F  </i>
   <i type="logical" name="LMAGBLOCH"> F  </i>
   <i type="logical" name="LCHIMAG"> F  </i>
   <i type="logical" name="LGAUGE"> T  </i>
   <i type="int" name="MAGATOM">     0</i>
   <v name="MAGDIPOL">      0.00000000      0.00000000      0.00000000</v>
   <v name="AVECCONST">      0.00000000      0.00000000      0.00000000</v>
  </separator>
  <separator name="response functions" >
   <i type="logical" name="LALL_IN_ONE"> F  </i>
   <i type="int" name="IALL_IN_ONE">    -1</i>
   <i type="int" name="NBANDS_WAVE">    -1</i>
   <i type="logical" name="LFINITE_TEMPERATURE"> F  </i>
   <i type="logical" name="LADDER"> F  </i>
   <i type="logical" name="LRPAFORCE"> F  </i>
   <i type="logical" name="LFXC"> F  </i>
   <i type="logical" name="LHARTREE"> T  </i>
   <i type="int" name="IBSE">     0</i>
   <v type="int" name="KPOINT">    -1     0     0     0</v>
   <i type="logical" name="LTCTC"> F  </i>
   <i type="logical" name="LTCTE"> F  </i>
   <i type="logical" name="LTETE"> F  </i>
   <i type="logical" name="LTRIPLET"> F  </i>
   <i type="logical" name="LFXCEPS"> F  </i>
   <i type="logical" name="LFXHEG"> F  </i>
   <i type="int" name="NATURALO">     2</i>
   <i type="logical" name="LHOLEGF"> F  </i>
   <i type="logical" name="L2ORDER"> F  </i>
   <i type="logical" name="LDMP1"> F  </i>
   <i type="logical" name="LMP2LT"> F  </i>
   <i type="logical" name="LSMP2LT"> F  </i>
   <i type="logical" name="LGWLF"> F  </i>
   <i name="ENCUTGW">     -1.60000002</i>
   <i name="ENCUTGWSOFT">     -1.60000002</i>
   <i name="ENCUTLF">     -1.00000000</i>
   <i type="logical" name="LESF_SPLINES"> F  </i>
   <i type="int" name="LMAXMP2">    -1</i>
   <i name="SCISSOR">      0.00000000</i>
   <i type="int" name="NOMEGA">     0</i>
   <i type="int" name="NOMEGAR">     0</i>
   <i type="int" name="NBANDSGW">    -1</i>
   <i type="int" name="NBANDSO">    -1</i>
   <i type="int" name="NBANDSV">    -1</i>
   <i type="int" name="NELMGW">     1</i>
   <i type="int" name="NELMHF">     1</i>
   <i type="int" name="DIM">     3</i>
   <i type="int" name="IESPILON">     4</i>
   <i type="int" name="ANTIRES">     0</i>
   <i name="OMEGAMAX">    -30.00000000</i>
   <i name="OMEGAMIN">    -30.00000000</i>
   <i name="OMEGATL">   -200.00000000</i>
   <i type="int" name="OMEGAGRID">     0</i>
   <i name="CSHIFT">     -0.10000000</i>
   <i type="logical" name="LSELFENERGY"> F  </i>
   <i type="logical" name="LSPECTRAL"> F  </i>
   <i type="logical" name="LSPECTRALGW"> F  </i>
   <i type="logical" name="LSINGLES"> F  </i>
   <i type="logical" name="LFERMIGW"> F  </i>
   <i type="logical" name="ODDONLYGW"> F  </i>
   <i type="logical" name="EVENONLYGW"> F  </i>
   <i type="int" name="NKREDLFX">     1</i>
   <i type="int" name="NKREDLFY">     1</i>
   <i type="int" name="NKREDLFZ">     1</i>
   <i type="int" name="MAXMEM">  2800</i>
   <i type="int" name="TELESCOPE">     0</i>
   <i type="int" name="NTAUPAR">    -1</i>
   <i type="int" name="NOMEGAPAR">    -1</i>
   <i name="DAMP_NEWTON">      0.80000001</i>
   <i name="LAMBDA">      1.00000000</i>
  </separator>
  <separator name="External order field" >
   <i name="OFIELD_KAPPA">      0.00000000</i>
   <v name="OFIELD_K">      0.00000000      0.00000000      0.00000000</v>
   <i name="OFIELD_Q6_NEAR">      0.00000000</i>
   <i name="OFIELD_Q6_FAR">      0.00000000</i>
   <i name="OFIELD_A">      0.00000000</i>
  </separator>
  <separator name="optional k-points parameters" >
   <i type="int" name="KPOINTS_OPT_MODE">     1</i>
   <i type="logical" name="LKPOINTS_OPT"> F  </i>
  </separator>
 </parameters>
 <atominfo>
  <atoms>       9 </atoms>
  <types>       2 </types>
  <array name="atoms" >
   <dimension dim="1">ion</dimension>
   <field type="string">element</field>
   <field type="int">atomtype</field>
   <set>
    <rc><c>Si</c><c>   1</c></rc>
    <rc><c>Si</c><c>   1</c></rc>
    <rc><c>Si</c><c>   1</c></rc>
    <rc><c>O </c><c>   2</c></rc>
    <rc><c>O </c><c>   2</c></rc>
    <rc><c>O </c><c>   2</c></rc>
    <rc><c>O </c><c>   2</c></rc>
    <rc><c>O </c><c>   2</c></rc>
    <rc><c>O </c><c>   2</c></rc>
   </set>
  </array>
  <array name="atomtypes" >
   <dimension dim="1">type</dimension>
   <field type="int">atomspertype</field>
   <field type="string">element</field>
   <field>mass</field>
   <field>valence</field>
   <field type="string">pseudopotential</field>
   <set>
    <rc><c>   3</c><c>Si</c><c>     28.08500000</c><c>      4.00000000</c><c>  PAW_PBE Si 05Jan2001                  </c></rc>
    <rc><c>   6</c><c>O </c><c>     16.00000000</c><c>      6.00000000</c><c>  PAW_PBE O 08Apr2002                   </c></rc>
   </set>
  </array>
 </atominfo>
 <structure name="initialpos" >
  <crystal>
   <varray name="basis" >
    <v>       4.87342988       0.00000000       0.00000000 </v>
    <v>      -2.43671494       4.22051408       0.00000000 </v>
    <v>       0.00000000       0.00000000       5.37418982 </v>
   </varray>
   <i name="volume">    110.53837516 </i>
   <varray name="rec_basis" >
    <v>       0.20519429       0.11846898      -0.00000000 </v>
    <v>       0.00000000       0.23693796       0.00000000 </v>
    <v>       0.00000000      -0.00000000       0.18607456 </v>
   </varray>
  </crystal>
  <varray name="positions" >
   <v>       0.46471958       0.00000000       0.66666667 </v>
   <v>       0.99984718       0.46458822       0.33325859 </v>
   <v>       0.53525895       0.53541178       0.00007474 </v>
   <v>       0.13561964       0.72401853       0.55402595 </v>
   <v>       0.27602372       0.41154562       0.22093979 </v>
   <v>       0.58863065       0.86467793       0.88760058 </v>
   <v>       0.41160111       0.27598147       0.77930739 </v>
   <v>       0.86447810       0.58845438       0.11239354 </v>
   <v>       0.72395273       0.13532207       0.44573276 </v>
  </varray>
 </structure>
 <calculation>
  <scstep>
   <time name="dav">    0.79    0.79</time>
   <time name="total">    0.83    0.81</time>
   <energy>
    <i name="alphaZ">     71.30271804 </i>
    <i name="ewald">  -1930.19422768 </i>
    <i name="hartreedc">   -909.39712202 </i>
    <i name="XCdc">    141.70969274 </i>
    <i name="pawpsdc">   2343.66826019 </i>
    <i name="pawaedc">  -2301.68043871 </i>
    <i name="eentropy">     -0.00758770 </i>
    <i name="bandstr">    -17.83860621 </i>
    <i name="atom">   2903.33737771 </i>
    <i name="e_fr_energy">    300.90006637 </i>
    <i name="e_wo_entrp">    300.90765407 </i>
    <i name="e_0_energy">    300.90386022 </i>
   </energy>
  </scstep>
  <scstep>
   <time name="dav">    0.82    0.82</time>
   <time name="total">    0.82    0.82</time>
   <energy>
    <i name="e_fr_energy">    -60.96002774 </i>
    <i name="e_wo_entrp">    -60.96002774 </i>
    <i name="e_0_energy">    -60.96002774 </i>
   </energy>
  </scstep>
  <scstep>
   <time name="dav">    0.77    0.77</time>
   <time name="total">    0.77    0.77</time>
   <energy>
    <i name="e_fr_energy">    -80.16472880 </i>
    <i name="e_wo_entrp">    -80.16472880 </i>
    <i name="e_0_energy">    -80.16472880 </i>
   </energy>
  </scstep>
  <scstep>
   <time name="dav">    0.77    0.77</time>
   <time name="total">    0.77    0.77</time>
   <energy>
    <i name="e_fr_energy">    -80.41815302 </i>
    <i name="e_wo_entrp">    -80.41815302 </i>
    <i name="e_0_energy">    -80.41815302 </i>
   </energy>
  </scstep>
  <scstep>
   <time name="dav">    0.76    0.76</time>
   <time name="total">    0.89    0.86</time>
   <energy>
    <i name="e_fr_energy">    -80.42329427 </i>
    <i name="e_wo_entrp">    -80.42329427 </i>
    <i name="e_0_energy">    -80.42329427 </i>
   </energy>
  </scstep>
  <scstep>
   <time name="diag">    0.08    0.08</time>
   <time name="diis">    0.86    0.86</time>
   <time name="orth">    0.01    0.01</time>
   <time name="total">    1.10    1.06</time>
   <energy>
    <i name="e_fr_energy">    -70.67421978 </i>
    <i name="e_wo_entrp">    -70.67421978 </i>
    <i name="e_0_energy">    -70.67421978 </i>
   </energy>
  </scstep>
  <scstep>
   <time name="diag">    0.08    0.08</time>
   <time name="diis">    0.95    0.95</time>
   <time name="orth">    0.01    0.01</time>
   <time name="total">    1.19    1.15</time>
   <energy>
    <i name="e_fr_energy">    -70.97638158 </i>
    <i name="e_wo_entrp">    -70.97638158 </i>
    <i name="e_0_energy">    -70.97638158 </i>
   </energy>
  </scstep>
  <scstep>
   <time name="diag">    0.08    0.08</time>
   <time name="diis">    0.95    0.95</time>
   <time name="orth">    0.01    0.01</time>
   <time name="total">    1.19    1.15</time>
   <energy>
    <i name="e_fr_energy">    -70.96833859 </i>
    <i name="e_wo_entrp">    -70.96833859 </i>
    <i name="e_0_energy">    -70.96833859 </i>
   </energy>
  </scstep>
  <scstep>
   <time name="diag">    0.08    0.08</time>
   <time name="diis">    0.96    0.97</time>
   <time name="orth">    0.01    0.01</time>
   <time name="total">    1.21    1.16</time>
   <energy>
    <i name="e_fr_energy">    -70.98743562 </i>
    <i name="e_wo_entrp">    -70.98743562 </i>
    <i name="e_0_energy">    -70.98743562 </i>
   </energy>
  </scstep>
  <scstep>
   <time name="diag">    0.08    0.08</time>
   <time name="diis">    0.97    0.97</time>
   <time name="orth">    0.01    0.01</time>
   <time name="total">    1.21    1.16</time>
   <energy>
    <i name="e_fr_energy">    -70.99275264 </i>
    <i name="e_wo_entrp">    -70.99275264 </i>
    <i name="e_0_energy">    -70.99275264 </i>
   </energy>
  </scstep>
  <scstep>
   <time name="diag">    0.08    0.08</time>
   <time name="diis">    0.96    0.97</time>
   <time name="orth">    0.01    0.01</time>
   <time name="total">    1.21    1.16</time>
   <energy>
    <i name="e_fr_energy">    -70.98887957 </i>
    <i name="e_wo_entrp">    -70.98887957 </i>
    <i name="e_0_energy">    -70.98887957 </i>
   </energy>
  </scstep>
  <scstep>
   <time name="diag">    0.08    0.08</time>
   <time name="diis">    0.97    0.97</time>
   <time name="orth">    0.01    0.01</time>
   <time name="total">    1.21    1.16</time>
   <energy>
    <i name="e_fr_energy">    -70.98949034 </i>
    <i name="e_wo_entrp">    -70.98949034 </i>
    <i name="e_0_energy">    -70.98949034 </i>
   </energy>
  </scstep>
  <scstep>
   <time name="diag">    0.08    0.08</time>
   <time name="diis">    1.03    1.03</time>
   <time name="orth">    0.01    0.01</time>
   <time name="total">    1.27    1.22</time>
   <energy>
    <i name="e_fr_energy">    -70.98925409 </i>
    <i name="e_wo_entrp">    -70.98925409 </i>
    <i name="e_0_energy">    -70.98925409 </i>
   </energy>
  </scstep>
  <scstep>
   <time name="diag">    0.08    0.08</time>
   <time name="diis">    0.98    0.98</time>
   <time name="orth">    0.01    0.01</time>
   <time name="total">    1.22    1.17</time>
   <energy>
    <i name="e_fr_energy">    -70.98920857 </i>
    <i name="e_wo_entrp">    -70.98920857 </i>
    <i name="e_0_energy">    -70.98920857 </i>
   </energy>
  </scstep>
  <scstep>
   <time name="diag">    0.08    0.08</time>
   <time name="diis">    1.07    1.07</time>
   <time name="orth">    0.01    0.01</time>
   <time name="total">    1.32    1.27</time>
   <energy>
    <i name="e_fr_energy">    -70.98920562 </i>
    <i name="e_wo_entrp">    -70.98920562 </i>
    <i name="e_0_energy">    -70.98920562 </i>
   </energy>
  </scstep>
  <scstep>
   <time name="diag">    0.08    0.08</time>
   <time name="diis">    0.98    0.98</time>
   <time name="orth">    0.01    0.01</time>
   <time name="total">    1.23    1.18</time>
   <energy>
    <i name="e_fr_energy">    -70.98920459 </i>
    <i name="e_wo_entrp">    -70.98920459 </i>
    <i name="e_0_energy">    -70.98920459 </i>
   </energy>
  </scstep>
  <scstep>
   <time name="diag">    0.08    0.08</time>
   <time name="diis">    0.98    0.99</time>
   <time name="orth">    0.01    0.01</time>
   <time name="total">    1.23    1.18</time>
   <energy>
    <i name="e_fr_energy">    -70.98920488 </i>
    <i name="e_wo_entrp">    -70.98920488 </i>
    <i name="e_0_energy">    -70.98920488 </i>
   </energy>
  </scstep>
  <scstep>
   <time name="diag">    0.08    0.08</time>
   <time name="diis">    1.00    1.00</time>
   <time name="orth">    0.01    0.01</time>
   <time name="total">    1.25    1.20</time>
   <energy>
    <i name="e_fr_energy">    -70.98920513 </i>
    <i name="e_wo_entrp">    -70.98920513 </i>
    <i name="e_0_energy">    -70.98920513 </i>
   </energy>
  </scstep>
  <scstep>
   <time name="diag">    0.08    0.08</time>
   <time name="diis">    0.97    0.97</time>
   <time name="orth">    0.01    0.01</time>
   <time name="total">    1.22    1.17</time>
   <energy>
    <i name="e_fr_energy">    -70.98920505 </i>
    <i name="e_wo_entrp">    -70.98920505 </i>
    <i name="e_0_energy">    -70.98920505 </i>
   </energy>
  </scstep>
  <scstep>
   <time name="diag">    0.08    0.08</time>
   <time name="diis">    0.97    0.98</time>
   <time name="orth">    0.01    0.01</time>
   <time name="total">    1.22    1.17</time>
   <energy>
    <i name="e_fr_energy">    -70.98920509 </i>
    <i name="e_wo_entrp">    -70.98920509 </i>
    <i name="e_0_energy">    -70.98920509 </i>
   </energy>
  </scstep>
  <scstep>
   <time name="diag">    0.08    0.08</time>
   <time name="diis">    0.67    0.67</time>
   <time name="orth">    0.01    0.01</time>
   <time name="total">    0.92    0.87</time>
   <energy>
    <i name="e_fr_energy">    -70.98920506 </i>
    <i name="e_wo_entrp">    -70.98920506 </i>
    <i name="e_0_energy">    -70.98920506 </i>
   </energy>
  </scstep>
  <scstep>
   <time name="diag">    0.08    0.08</time>
   <time name="diis">    0.66    0.66</time>
   <time name="orth">    0.01    0.01</time>
   <time name="total">    0.77    0.75</time>
   <energy>
    <i name="alphaZ">     71.30271804 </i>
    <i name="ewald">  -1930.19422768 </i>
    <i name="hartreedc">  -1040.55709970 </i>
    <i name="XCdc">    150.68545738 </i>
    <i name="pawpsdc">   8045.46526020 </i>
    <i name="pawaedc">  -8005.84305917 </i>
    <i name="eentropy">     -0.00000000 </i>
    <i name="bandstr">   -265.18563184 </i>
    <i name="atom">   2903.33737771 </i>
    <i name="e_fr_energy">    -70.98920506 </i>
    <i name="e_wo_entrp">    -70.98920506 </i>
    <i name="e_0_energy">    -70.98920506 </i>
   </energy>
  </scstep>
  <structure>
   <crystal>
    <varray name="basis" >
     <v>       4.87342988       0.00000000       0.00000000 </v>
     <v>      -2.43671494       4.22051408       0.00000000 </v>
     <v>       0.00000000       0.00000000       5.37418982 </v>
    </varray>
    <i name="volume">    110.53837516 </i>
    <varray name="rec_basis" >
     <v>       0.20519429       0.11846898      -0.00000000 </v>
     <v>       0.00000000       0.23693796       0.00000000 </v>
     <v>       0.00000000      -0.00000000       0.18607456 </v>
    </varray>
   </crystal>
   <varray name="positions" >
    <v>       0.46471958       0.00000000       0.66666667 </v>
    <v>       0.99984718       0.46458822       0.33325859 </v>
    <v>       0.53525895       0.53541178       0.00007474 </v>
    <v>       0.13561964       0.72401853       0.55402595 </v>
    <v>       0.27602372       0.41154562       0.22093979 </v>
    <v>       0.58863065       0.86467793       0.88760058 </v>
    <v>       0.41160111       0.27598147       0.77930739 </v>
    <v>       0.86447810       0.58845438       0.11239354 </v>
    <v>       0.72395273       0.13532207       0.44573276 </v>
   </varray>
  </structure>
  <varray name="forces" >
   <v>       0.01559553       0.00000000       0.00000000 </v>
   <v>      -0.00160625       0.02147548       0.00582220 </v>
   <v>      -0.00160625      -0.02147548      -0.00582220 </v>
   <v>      -0.27985522      -0.00232433       0.16058103 </v>
   <v>       0.13912764      -0.23914499       0.14948908 </v>
   <v>       0.13453607       0.23310989       0.15013017 </v>
   <v>      -0.27985522       0.00232433      -0.16058103 </v>
   <v>       0.13912764       0.23914499      -0.14948908 </v>
   <v>       0.13453607      -0.23310989      -0.15013017 </v>
  </varray>
  <varray name="stress" >
   <v>      72.18795873       0.00000000       0.00000000 </v>
   <v>       0.00000000      71.74068786      -0.15674548 </v>
   <v>       0.00000000      -0.15674471      73.61514039 </v>
  </varray>
  <energy>
   <i name="e_fr_energy">    -70.98920506 </i>
   <i name="e_wo_entrp">    -70.98920506 </i>
   <i name="e_0_energy">    -70.98920506 </i>
  </energy>
  <scstep>
   <time name="total">   12.34    2.61</time>
   <energy>
    <i name="e_fr_energy">   -182.45348898 </i>
    <i name="e_wo_entrp">   -182.45348898 </i>
    <i name="e_0_energy">   -182.45348898 </i>
   </energy>
  </scstep>
  <scstep>
   <time name="total">   12.05    2.30</time>
   <energy>
    <i name="e_fr_energy">   -172.60715840 </i>
    <i name="e_wo_entrp">   -172.60715840 </i>
    <i name="e_0_energy">   -172.60715840 </i>
   </energy>
  </scstep>
  <scstep>
   <time name="total">   12.17    2.32</time>
   <energy>
    <i name="e_fr_energy">   -172.75548860 </i>
    <i name="e_wo_entrp">   -172.75548860 </i>
    <i name="e_0_energy">   -172.75548860 </i>
   </energy>
  </scstep>
  <scstep>
   <time name="total">    0.93    0.93</time>
   <energy>
    <i name="e_fr_energy">   -172.76301494 </i>
    <i name="e_wo_entrp">   -172.76301494 </i>
    <i name="e_0_energy">   -172.76301494 </i>
   </energy>
  </scstep>
  <scstep>
   <time name="total">    0.93    0.94</time>
   <energy>
    <i name="e_fr_energy">   -172.76319512 </i>
    <i name="e_wo_entrp">   -172.76319512 </i>
    <i name="e_0_energy">   -172.76319512 </i>
   </energy>
  </scstep>
  <scstep>
   <time name="total">    0.96    0.96</time>
   <energy>
    <i name="e_fr_energy">   -172.76321619 </i>
    <i name="e_wo_entrp">   -172.76321619 </i>
    <i name="e_0_energy">   -172.76321619 </i>
   </energy>
  </scstep>
  <scstep>
   <time name="total">    0.97    0.98</time>
   <energy>
    <i name="e_fr_energy">   -172.76320894 </i>
    <i name="e_wo_entrp">   -172.76320894 </i>
    <i name="e_0_energy">   -172.76320894 </i>
   </energy>
  </scstep>
  <scstep>
   <time name="total">    0.98    0.98</time>
   <energy>
    <i name="e_fr_energy">   -172.76320866 </i>
    <i name="e_wo_entrp">   -172.76320866 </i>
    <i name="e_0_energy">   -172.76320866 </i>
   </energy>
  </scstep>
  <scstep>
   <time name="total">    0.98    0.98</time>
   <energy>
    <i name="e_fr_energy">   -172.76320852 </i>
    <i name="e_wo_entrp">   -172.76320852 </i>
    <i name="e_0_energy">   -172.76320852 </i>
   </energy>
  </scstep>
  <scstep>
   <time name="total">    0.98    0.99</time>
   <energy>
    <i name="e_fr_energy">   -172.76321106 </i>
    <i name="e_wo_entrp">   -172.76321106 </i>
    <i name="e_0_energy">   -172.76321106 </i>
   </energy>
  </scstep>
  <scstep>
   <time name="total">   12.31    2.61</time>
   <energy>
    <i name="e_fr_energy">   -182.27631553 </i>
    <i name="e_wo_entrp">   -182.27631553 </i>
    <i name="e_0_energy">   -182.27631553 </i>
   </energy>
  </scstep>
  <scstep>
   <time name="total">   11.99    2.28</time>
   <energy>
    <i name="e_fr_energy">   -172.61038295 </i>
    <i name="e_wo_entrp">   -172.61038295 </i>
    <i name="e_0_energy">   -172.61038295 </i>
   </energy>
  </scstep>
  <scstep>
   <time name="total">   12.07    2.31</time>
   <energy>
    <i name="e_fr_energy">   -172.75439035 </i>
    <i name="e_wo_entrp">   -172.75439035 </i>
    <i name="e_0_energy">   -172.75439035 </i>
   </energy>
  </scstep>
  <scstep>
   <time name="total">    0.92    0.93</time>
   <energy>
    <i name="e_fr_energy">   -172.76160705 </i>
    <i name="e_wo_entrp">   -172.76160705 </i>
    <i name="e_0_energy">   -172.76160705 </i>
   </energy>
  </scstep>
  <scstep>
   <time name="total">    0.93    0.94</time>
   <energy>
    <i name="e_fr_energy">   -172.76177784 </i>
    <i name="e_wo_entrp">   -172.76177784 </i>
    <i name="e_0_energy">   -172.76177784 </i>
   </energy>
  </scstep>
  <scstep>
   <time name="total">    0.98    0.98</time>
   <energy>
    <i name="e_fr_energy">   -172.76178888 </i>
    <i name="e_wo_entrp">   -172.76178888 </i>
    <i name="e_0_energy">   -172.76178888 </i>
   </energy>
  </scstep>
  <scstep>
   <time name="total">    0.99    1.00</time>
   <energy>
    <i name="e_fr_energy">   -172.76179121 </i>
    <i name="e_wo_entrp">   -172.76179121 </i>
    <i name="e_0_energy">   -172.76179121 </i>
   </energy>
  </scstep>
  <scstep>
   <time name="total">    1.00    1.00</time>
   <energy>
    <i name="e_fr_energy">   -172.76179506 </i>
    <i name="e_wo_entrp">   -172.76179506 </i>
    <i name="e_0_energy">   -172.76179506 </i>
   </energy>
  </scstep>
  <scstep>
   <time name="total">    1.00    1.01</time>
   <energy>
    <i name="e_fr_energy">   -172.76179619 </i>
    <i name="e_wo_entrp">   -172.76179619 </i>
    <i name="e_0_energy">   -172.76179619 </i>
   </energy>
  </scstep>
  <scstep>
   <time name="total">    1.01    1.01</time>
   <energy>
    <i name="e_fr_energy">   -172.76179424 </i>
    <i name="e_wo_entrp">   -172.76179424 </i>
    <i name="e_0_energy">   -172.76179424 </i>
   </energy>
  </scstep>
  <scstep>
   <time name="total">   12.30    2.61</time>
   <energy>
    <i name="e_fr_energy">   -182.15761509 </i>
    <i name="e_wo_entrp">   -182.15761509 </i>
    <i name="e_0_energy">   -182.15761509 </i>
   </energy>
  </scstep>
  <scstep>
   <time name="total">   12.02    2.28</time>
   <energy>
    <i name="e_fr_energy">   -172.56305182 </i>
    <i name="e_wo_entrp">   -172.56305182 </i>
    <i name="e_0_energy">   -172.56305182 </i>
   </energy>
  </scstep>
  <scstep>
   <time name="total">   12.39    2.35</time>
   <energy>
    <i name="e_fr_energy">   -172.71117125 </i>
    <i name="e_wo_entrp">   -172.71117125 </i>
    <i name="e_0_energy">   -172.71117125 </i>
   </energy>
  </scstep>
  <scstep>
   <time name="total">    0.92    0.92</time>
   <energy>
    <i name="e_fr_energy">   -172.71793717 </i>
    <i name="e_wo_entrp">   -172.71793717 </i>
    <i name="e_0_energy">   -172.71793717 </i>
   </energy>
  </scstep>
  <scstep>
   <time name="total">    0.92    0.92</time>
   <energy>
    <i name="e_fr_energy">   -172.71805005 </i>
    <i name="e_wo_entrp">   -172.71805005 </i>
    <i name="e_0_energy">   -172.71805005 </i>
   </energy>
  </scstep>
  <scstep>
   <time name="total">    0.95    0.95</time>
   <energy>
    <i name="e_fr_energy">   -172.71804731 </i>
    <i name="e_wo_entrp">   -172.71804731 </i>
    <i name="e_0_energy">   -172.71804731 </i>
   </energy>
  </scstep>
  <scstep>
   <time name="total">    0.98    0.98</time>
   <energy>
    <i name="e_fr_energy">   -172.71808925 </i>
    <i name="e_wo_entrp">   -172.71808925 </i>
    <i name="e_0_energy">   -172.71808925 </i>
   </energy>
  </scstep>
  <scstep>
   <time name="total">    0.98    0.98</time>
   <energy>
    <i name="e_fr_energy">   -172.71806115 </i>
    <i name="e_wo_entrp">   -172.71806115 </i>
    <i name="e_0_energy">   -172.71806115 </i>
   </energy>
  </scstep>
  <scstep>
   <time name="total">    0.99    0.99</time>
   <energy>
    <i name="e_fr_energy">   -172.71804586 </i>
    <i name="e_wo_entrp">   -172.71804586 </i>
    <i name="e_0_energy">   -172.71804586 </i>
   </energy>
  </scstep>
  <scstep>
   <time name="total">    0.99    1.00</time>
   <energy>
    <i name="e_fr_energy">   -172.71801829 </i>
    <i name="e_wo_entrp">   -172.71801829 </i>
    <i name="e_0_energy">   -172.71801829 </i>
   </energy>
  </scstep>
  <scstep>
   <time name="total">    1.70    1.23</time>
   <energy>
    <i name="e_fr_energy">     -0.48311591 </i>
    <i name="e_wo_entrp">     -0.48311591 </i>
    <i name="e_0_energy">     -0.48311591 </i>
   </energy>
  </scstep>
  <scstep>
   <time name="total">    1.72    1.23</time>
   <energy>
    <i name="e_fr_energy">     -0.48531224 </i>
    <i name="e_wo_entrp">     -0.48531224 </i>
    <i name="e_0_energy">     -0.48531224 </i>
   </energy>
  </scstep>
  <scstep>
   <time name="total">    1.70    1.23</time>
   <energy>
    <i name="e_fr_energy">     -0.48550095 </i>
    <i name="e_wo_entrp">     -0.48550095 </i>
    <i name="e_0_energy">     -0.48550095 </i>
   </energy>
  </scstep>
  <scstep>
   <time name="total">    1.71    1.24</time>
   <energy>
    <i name="e_fr_energy">     -0.48550958 </i>
    <i name="e_wo_entrp">     -0.48550958 </i>
    <i name="e_0_energy">     -0.48550958 </i>
   </energy>
  </scstep>
  <scstep>
   <time name="total">    1.71    1.24</time>
   <energy>
    <i name="e_fr_energy">     -0.48550988 </i>
    <i name="e_wo_entrp">     -0.48550988 </i>
    <i name="e_0_energy">     -0.48550988 </i>
   </energy>
  </scstep>
  <scstep>
   <time name="total">    1.67    1.20</time>
   <energy>
    <i name="e_fr_energy">     -0.48550990 </i>
    <i name="e_wo_entrp">     -0.48550990 </i>
    <i name="e_0_energy">     -0.48550990 </i>
   </energy>
  </scstep>
  <scstep>
   <time name="total">    1.62    1.16</time>
   <energy>
    <i name="e_fr_energy">     -0.48550991 </i>
    <i name="e_wo_entrp">     -0.48550991 </i>
    <i name="e_0_energy">     -0.48550991 </i>
   </energy>
  </scstep>
  <scstep>
   <time name="total">    1.61    1.14</time>
   <energy>
    <i name="e_fr_energy">     -0.48550991 </i>
    <i name="e_wo_entrp">     -0.48550991 </i>
    <i name="e_0_energy">     -0.48550991 </i>
   </energy>
  </scstep>
  <scstep>
   <time name="total">    1.60    1.13</time>
   <energy>
    <i name="e_fr_energy">     -0.48550991 </i>
    <i name="e_wo_entrp">     -0.48550991 </i>
    <i name="e_0_energy">     -0.48550991 </i>
   </energy>
  </scstep>
  <scstep>
   <time name="total">    1.71    1.23</time>
   <energy>
    <i name="e_fr_energy">     -0.48326641 </i>
    <i name="e_wo_entrp">     -0.48326641 </i>
    <i name="e_0_energy">     -0.48326641 </i>
   </energy>
  </scstep>
  <scstep>
   <time name="total">    1.69    1.22</time>
   <energy>
    <i name="e_fr_energy">     -0.48542956 </i>
    <i name="e_wo_entrp">     -0.48542956 </i>
    <i name="e_0_energy">     -0.48542956 </i>
   </energy>
  </scstep>
  <scstep>
   <time name="total">    1.69    1.23</time>
   <energy>
    <i name="e_fr_energy">     -0.48561777 </i>
    <i name="e_wo_entrp">     -0.48561777 </i>
    <i name="e_0_energy">     -0.48561777 </i>
   </energy>
  </scstep>
  <scstep>
   <time name="total">    1.70    1.24</time>
   <energy>
    <i name="e_fr_energy">     -0.48562639 </i>
    <i name="e_wo_entrp">     -0.48562639 </i>
    <i name="e_0_energy">     -0.48562639 </i>
   </energy>
  </scstep>
  <scstep>
   <time name="total">    1.71    1.24</time>
   <energy>
    <i name="e_fr_energy">     -0.48562669 </i>
    <i name="e_wo_entrp">     -0.48562669 </i>
    <i name="e_0_energy">     -0.48562669 </i>
   </energy>
  </scstep>
  <scstep>
   <time name="total">    1.66    1.19</time>
   <energy>
    <i name="e_fr_energy">     -0.48562671 </i>
    <i name="e_wo_entrp">     -0.48562671 </i>
    <i name="e_0_energy">     -0.48562671 </i>
   </energy>
  </scstep>
  <scstep>
   <time name="total">    1.63    1.16</time>
   <energy>
    <i name="e_fr_energy">     -0.48562671 </i>
    <i name="e_wo_entrp">     -0.48562671 </i>
    <i name="e_0_energy">     -0.48562671 </i>
   </energy>
  </scstep>
  <scstep>
   <time name="total">    1.63    1.16</time>
   <energy>
    <i name="e_fr_energy">     -0.48562671 </i>
    <i name="e_wo_entrp">     -0.48562671 </i>
    <i name="e_0_energy">     -0.48562671 </i>
   </energy>
  </scstep>
  <scstep>
   <time name="total">    1.62    1.15</time>
   <energy>
    <i name="e_fr_energy">     -0.48562671 </i>
    <i name="e_wo_entrp">     -0.48562671 </i>
    <i name="e_0_energy">     -0.48562671 </i>
   </energy>
  </scstep>
  <scstep>
   <time name="total">    1.69    1.22</time>
   <energy>
    <i name="e_fr_energy">     -0.48761100 </i>
    <i name="e_wo_entrp">     -0.48761100 </i>
    <i name="e_0_energy">     -0.48761100 </i>
   </energy>
  </scstep>
  <scstep>
   <time name="total">    1.67    1.20</time>
   <energy>
    <i name="e_fr_energy">     -0.48965557 </i>
    <i name="e_wo_entrp">     -0.48965557 </i>
    <i name="e_0_energy">     -0.48965557 </i>
   </energy>
  </scstep>
  <scstep>
   <time name="total">    1.68    1.22</time>
   <energy>
    <i name="e_fr_energy">     -0.48984660 </i>
    <i name="e_wo_entrp">     -0.48984660 </i>
    <i name="e_0_energy">     -0.48984660 </i>
   </energy>
  </scstep>
  <scstep>
   <time name="total">    1.70    1.23</time>
   <energy>
    <i name="e_fr_energy">     -0.48985552 </i>
    <i name="e_wo_entrp">     -0.48985552 </i>
    <i name="e_0_energy">     -0.48985552 </i>
   </energy>
  </scstep>
  <scstep>
   <time name="total">    1.70    1.24</time>
   <energy>
    <i name="e_fr_energy">     -0.48985583 </i>
    <i name="e_wo_entrp">     -0.48985583 </i>
    <i name="e_0_energy">     -0.48985583 </i>
   </energy>
  </scstep>
  <scstep>
   <time name="total">    1.66    1.19</time>
   <energy>
    <i name="e_fr_energy">     -0.48985585 </i>
    <i name="e_wo_entrp">     -0.48985585 </i>
    <i name="e_0_energy">     -0.48985585 </i>
   </energy>
  </scstep>
  <scstep>
   <time name="total">    1.63    1.15</time>
   <energy>
    <i name="e_fr_energy">     -0.48985585 </i>
    <i name="e_wo_entrp">     -0.48985585 </i>
    <i name="e_0_energy">     -0.48985585 </i>
   </energy>
  </scstep>
  <scstep>
   <time name="total">    1.60    1.13</time>
   <energy>
    <i name="e_fr_energy">     -0.48985585 </i>
    <i name="e_wo_entrp">     -0.48985585 </i>
    <i name="e_0_energy">     -0.48985585 </i>
   </energy>
  </scstep>
  <scstep>
   <time name="total">    1.66    1.14</time>
   <energy>
    <i name="e_fr_energy">     -0.48985585 </i>
    <i name="e_wo_entrp">     -0.48985585 </i>
    <i name="e_0_energy">     -0.48985585 </i>
   </energy>
  </scstep>
  <varray name="dielectric_ipa" >
   <v>       2.58956715       0.00000000       0.00000000 </v>
   <v>       0.00000000       2.58994672      -0.00002128 </v>
   <v>       0.00000000      -0.00002255       2.60380609 </v>
  </varray>
  <kpoints>
   <generation param="Gamma">
    <v type="int" name="divisions">       4        4        4 </v>
    <v name="usershift">      0.00000000       0.00000000       0.00000000 </v>
    <v name="genvec1">      0.25000000       0.00000000       0.00000000 </v>
    <v name="genvec2">      0.00000000       0.25000000       0.00000000 </v>
    <v name="genvec3">      0.00000000       0.00000000       0.25000000 </v>
    <v name="shift">      0.00000000       0.00000000       0.00000000 </v>
   </generation>
   <varray name="kpointlist" >
    <v>       0.00000000       0.00000000       0.00000000 </v>
    <v>       0.25000000       0.00000000       0.00000000 </v>
    <v>       0.00000000       0.25000000       0.00000000 </v>
    <v>       0.50000000       0.00000000       0.00000000 </v>
    <v>       0.00000000       0.50000000       0.00000000 </v>
    <v>       0.25000000       0.25000000       0.00000000 </v>
    <v>       0.50000000       0.25000000       0.00000000 </v>
    <v>       0.00000000       0.00000000       0.25000000 </v>
    <v>       0.25000000       0.00000000       0.25000000 </v>
    <v>       0.00000000       0.25000000       0.25000000 </v>
    <v>      -0.25000000       0.00000000       0.25000000 </v>
    <v>       0.00000000      -0.25000000       0.25000000 </v>
    <v>       0.50000000       0.00000000       0.25000000 </v>
    <v>       0.00000000       0.50000000       0.25000000 </v>
    <v>       0.25000000       0.25000000       0.25000000 </v>
    <v>       0.50000000       0.25000000       0.25000000 </v>
    <v>      -0.25000000      -0.25000000       0.25000000 </v>
    <v>       0.00000000       0.00000000       0.50000000 </v>
    <v>       0.25000000       0.00000000       0.50000000 </v>
    <v>       0.00000000       0.25000000       0.50000000 </v>
    <v>       0.50000000       0.00000000       0.50000000 </v>
    <v>       0.00000000       0.50000000       0.50000000 </v>
    <v>       0.25000000       0.25000000       0.50000000 </v>
    <v>       0.50000000       0.25000000       0.50000000 </v>
   </varray>
   <varray name="weights" >
    <v>       0.01562500 </v>
    <v>       0.06250000 </v>
    <v>       0.03125000 </v>
    <v>       0.03125000 </v>
    <v>       0.01562500 </v>
    <v>       0.06250000 </v>
    <v>       0.03125000 </v>
    <v>       0.03125000 </v>
    <v>       0.06250000 </v>
    <v>       0.03125000 </v>
    <v>       0.06250000 </v>
    <v>       0.03125000 </v>
    <v>       0.06250000 </v>
    <v>       0.03125000 </v>
    <v>       0.06250000 </v>
    <v>       0.06250000 </v>
    <v>       0.06250000 </v>
    <v>       0.01562500 </v>
    <v>       0.06250000 </v>
    <v>       0.03125000 </v>
    <v>       0.03125000 </v>
    <v>       0.01562500 </v>
    <v>       0.06250000 </v>
    <v>       0.03125000 </v>
   </varray>
  </kpoints>
  <scstep>
   <time name="total">    1.70    1.22</time>
   <energy>
    <i name="e_fr_energy">     -0.48311591 </i>
    <i name="e_wo_entrp">     -0.48311591 </i>
    <i name="e_0_energy">     -0.48311591 </i>
   </energy>
  </scstep>
  <scstep>
   <time name="total">    1.75    1.27</time>
   <energy>
    <i name="e_fr_energy">     -0.48531224 </i>
    <i name="e_wo_entrp">     -0.48531224 </i>
    <i name="e_0_energy">     -0.48531224 </i>
   </energy>
  </scstep>
  <scstep>
   <time name="total">    1.76    1.28</time>
   <energy>
    <i name="e_fr_energy">     -0.46498883 </i>
    <i name="e_wo_entrp">     -0.46498883 </i>
    <i name="e_0_energy">     -0.46498883 </i>
   </energy>
  </scstep>
  <scstep>
   <time name="total">    1.77    1.28</time>
   <energy>
    <i name="e_fr_energy">     -0.47605541 </i>
    <i name="e_wo_entrp">     -0.47605541 </i>
    <i name="e_0_energy">     -0.47605541 </i>
   </energy>
  </scstep>
  <scstep>
   <time name="total">    1.76    1.27</time>
   <energy>
    <i name="e_fr_energy">     -0.49379755 </i>
    <i name="e_wo_entrp">     -0.49379755 </i>
    <i name="e_0_energy">     -0.49379755 </i>
   </energy>
  </scstep>
  <scstep>
   <time name="total">    1.75    1.26</time>
   <energy>
    <i name="e_fr_energy">     -0.49669428 </i>
    <i name="e_wo_entrp">     -0.49669428 </i>
    <i name="e_0_energy">     -0.49669428 </i>
   </energy>
  </scstep>
  <scstep>
   <time name="total">    1.78    1.29</time>
   <energy>
    <i name="e_fr_energy">     -0.49694609 </i>
    <i name="e_wo_entrp">     -0.49694609 </i>
    <i name="e_0_energy">     -0.49694609 </i>
   </energy>
  </scstep>
  <scstep>
   <time name="total">    1.78    1.29</time>
   <energy>
    <i name="e_fr_energy">     -0.49718115 </i>
    <i name="e_wo_entrp">     -0.49718115 </i>
    <i name="e_0_energy">     -0.49718115 </i>
   </energy>
  </scstep>
  <scstep>
   <time name="total">    1.79    1.29</time>
   <energy>
    <i name="e_fr_energy">     -0.49724062 </i>
    <i name="e_wo_entrp">     -0.49724062 </i>
    <i name="e_0_energy">     -0.49724062 </i>
   </energy>
  </scstep>
  <scstep>
   <time name="total">    1.81    1.31</time>
   <energy>
    <i name="e_fr_energy">     -0.49723653 </i>
    <i name="e_wo_entrp">     -0.49723653 </i>
    <i name="e_0_energy">     -0.49723653 </i>
   </energy>
  </scstep>
  <scstep>
   <time name="total">    1.81    1.32</time>
   <energy>
    <i name="e_fr_energy">     -0.49723666 </i>
    <i name="e_wo_entrp">     -0.49723666 </i>
    <i name="e_0_energy">     -0.49723666 </i>
   </energy>
  </scstep>
  <scstep>
   <time name="total">    1.78    1.29</time>
   <energy>
    <i name="e_fr_energy">     -0.49723716 </i>
    <i name="e_wo_entrp">     -0.49723716 </i>
    <i name="e_0_energy">     -0.49723716 </i>
   </energy>
  </scstep>
  <scstep>
   <time name="total">    1.78    1.29</time>
   <energy>
    <i name="e_fr_energy">     -0.49723702 </i>
    <i name="e_wo_entrp">     -0.49723702 </i>
    <i name="e_0_energy">     -0.49723702 </i>
   </energy>
  </scstep>
  <scstep>
   <time name="total">    1.80    1.31</time>
   <energy>
    <i name="e_fr_energy">     -0.49723686 </i>
    <i name="e_wo_entrp">     -0.49723686 </i>
    <i name="e_0_energy">     -0.49723686 </i>
   </energy>
  </scstep>
  <kpoints>
   <generation param="Gamma">
    <v type="int" name="divisions">       4        4        4 </v>
    <v name="usershift">      0.00000000       0.00000000       0.00000000 </v>
    <v name="genvec1">      0.25000000       0.00000000       0.00000000 </v>
    <v name="genvec2">      0.00000000       0.25000000       0.00000000 </v>
    <v name="genvec3">      0.00000000       0.00000000       0.25000000 </v>
    <v name="shift">      0.00000000       0.00000000       0.00000000 </v>
   </generation>
   <varray name="kpointlist" >
    <v>       0.00000000       0.00000000       0.00000000 </v>
    <v>       0.25000000       0.00000000       0.00000000 </v>
    <v>       0.00000000       0.25000000       0.00000000 </v>
    <v>      -0.25000000       0.25000000       0.00000000 </v>
    <v>       0.50000000       0.00000000       0.00000000 </v>
    <v>       0.00000000       0.50000000       0.00000000 </v>
    <v>       0.50000000       0.50000000       0.00000000 </v>
    <v>       0.25000000       0.25000000       0.00000000 </v>
    <v>      -0.25000000       0.50000000       0.00000000 </v>
    <v>       0.50000000       0.25000000       0.00000000 </v>
    <v>       0.00000000       0.00000000       0.25000000 </v>
    <v>       0.25000000       0.00000000       0.25000000 </v>
    <v>       0.00000000       0.25000000       0.25000000 </v>
    <v>      -0.25000000       0.25000000       0.25000000 </v>
    <v>      -0.25000000       0.00000000       0.25000000 </v>
    <v>       0.00000000      -0.25000000       0.25000000 </v>
    <v>       0.25000000      -0.25000000       0.25000000 </v>
    <v>       0.50000000       0.00000000       0.25000000 </v>
    <v>       0.00000000       0.50000000       0.25000000 </v>
    <v>       0.50000000       0.50000000       0.25000000 </v>
    <v>       0.25000000       0.25000000       0.25000000 </v>
    <v>      -0.25000000       0.50000000       0.25000000 </v>
    <v>       0.50000000       0.25000000       0.25000000 </v>
    <v>      -0.25000000      -0.25000000       0.25000000 </v>
    <v>       0.25000000       0.50000000       0.25000000 </v>
    <v>       0.50000000      -0.25000000       0.25000000 </v>
    <v>       0.00000000       0.00000000       0.50000000 </v>
    <v>       0.25000000       0.00000000       0.50000000 </v>
    <v>       0.00000000       0.25000000       0.50000000 </v>
    <v>      -0.25000000       0.25000000       0.50000000 </v>
    <v>       0.50000000       0.00000000       0.50000000 </v>
    <v>       0.00000000       0.50000000       0.50000000 </v>
    <v>       0.50000000       0.50000000       0.50000000 </v>
    <v>       0.25000000       0.25000000       0.50000000 </v>
    <v>      -0.25000000       0.50000000       0.50000000 </v>
    <v>       0.50000000       0.25000000       0.50000000 </v>
   </varray>
   <varray name="weights" >
    <v>       0.01562500 </v>
    <v>       0.03125000 </v>
    <v>       0.03125000 </v>
    <v>       0.03125000 </v>
    <v>       0.01562500 </v>
    <v>       0.01562500 </v>
    <v>       0.01562500 </v>
    <v>       0.03125000 </v>
    <v>       0.03125000 </v>
    <v>       0.03125000 </v>
    <v>       0.03125000 </v>
    <v>       0.03125000 </v>
    <v>       0.03125000 </v>
    <v>       0.03125000 </v>
    <v>       0.03125000 </v>
    <v>       0.03125000 </v>
    <v>       0.03125000 </v>
    <v>       0.03125000 </v>
    <v>       0.03125000 </v>
    <v>       0.03125000 </v>
    <v>       0.03125000 </v>
    <v>       0.03125000 </v>
    <v>       0.03125000 </v>
    <v>       0.03125000 </v>
    <v>       0.03125000 </v>
    <v>       0.03125000 </v>
    <v>       0.01562500 </v>
    <v>       0.03125000 </v>
    <v>       0.03125000 </v>
    <v>       0.03125000 </v>
    <v>       0.01562500 </v>
    <v>       0.01562500 </v>
    <v>       0.01562500 </v>
    <v>       0.03125000 </v>
    <v>       0.03125000 </v>
    <v>       0.03125000 </v>
   </varray>
  </kpoints>
  <scstep>
   <time name="total">    2.30    1.83</time>
   <energy>
    <i name="e_fr_energy">     -0.48326644 </i>
    <i name="e_wo_entrp">     -0.48326644 </i>
    <i name="e_0_energy">     -0.48326644 </i>
   </energy>
  </scstep>
  <scstep>
   <time name="total">    2.33    1.84</time>
   <energy>
    <i name="e_fr_energy">     -0.48542958 </i>
    <i name="e_wo_entrp">     -0.48542958 </i>
    <i name="e_0_energy">     -0.48542958 </i>
   </energy>
  </scstep>
  <scstep>
   <time name="total">    2.33    1.84</time>
   <energy>
    <i name="e_fr_energy">     -0.46516051 </i>
    <i name="e_wo_entrp">     -0.46516051 </i>
    <i name="e_0_energy">     -0.46516051 </i>
   </energy>
  </scstep>
  <scstep>
   <time name="total">    2.35    1.86</time>
   <energy>
    <i name="e_fr_energy">     -0.47600721 </i>
    <i name="e_wo_entrp">     -0.47600721 </i>
    <i name="e_0_energy">     -0.47600721 </i>
   </energy>
  </scstep>
  <scstep>
   <time name="total">    2.46    1.86</time>
   <energy>
    <i name="e_fr_energy">     -0.49374764 </i>
    <i name="e_wo_entrp">     -0.49374764 </i>
    <i name="e_0_energy">     -0.49374764 </i>
   </energy>
  </scstep>
  <scstep>
   <time name="total">    2.30    1.82</time>
   <energy>
    <i name="e_fr_energy">     -0.49666998 </i>
    <i name="e_wo_entrp">     -0.49666998 </i>
    <i name="e_0_energy">     -0.49666998 </i>
   </energy>
  </scstep>
  <scstep>
   <time name="total">    2.40    1.92</time>
   <energy>
    <i name="e_fr_energy">     -0.49690765 </i>
    <i name="e_wo_entrp">     -0.49690765 </i>
    <i name="e_0_energy">     -0.49690765 </i>
   </energy>
  </scstep>
  <scstep>
   <time name="total">    2.35    1.87</time>
   <energy>
    <i name="e_fr_energy">     -0.49714160 </i>
    <i name="e_wo_entrp">     -0.49714160 </i>
    <i name="e_0_energy">     -0.49714160 </i>
   </energy>
  </scstep>
  <scstep>
   <time name="total">    2.37    1.89</time>
   <energy>
    <i name="e_fr_energy">     -0.49720793 </i>
    <i name="e_wo_entrp">     -0.49720793 </i>
    <i name="e_0_energy">     -0.49720793 </i>
   </energy>
  </scstep>
  <scstep>
   <time name="total">    2.41    1.92</time>
   <energy>
    <i name="e_fr_energy">     -0.49720262 </i>
    <i name="e_wo_entrp">     -0.49720262 </i>
    <i name="e_0_energy">     -0.49720262 </i>
   </energy>
  </scstep>
  <scstep>
   <time name="total">    2.42    1.93</time>
   <energy>
    <i name="e_fr_energy">     -0.49720263 </i>
    <i name="e_wo_entrp">     -0.49720263 </i>
    <i name="e_0_energy">     -0.49720263 </i>
   </energy>
  </scstep>
  <scstep>
   <time name="total">    2.37    1.88</time>
   <energy>
    <i name="e_fr_energy">     -0.49720202 </i>
    <i name="e_wo_entrp">     -0.49720202 </i>
    <i name="e_0_energy">     -0.49720202 </i>
   </energy>
  </scstep>
  <scstep>
   <time name="total">    2.37    1.89</time>
   <energy>
    <i name="e_fr_energy">     -0.49720257 </i>
    <i name="e_wo_entrp">     -0.49720257 </i>
    <i name="e_0_energy">     -0.49720257 </i>
   </energy>
  </scstep>
  <scstep>
   <time name="total">    2.43    1.94</time>
   <energy>
    <i name="e_fr_energy">     -0.49720211 </i>
    <i name="e_wo_entrp">     -0.49720211 </i>
    <i name="e_0_energy">     -0.49720211 </i>
   </energy>
  </scstep>
  <kpoints>
   <generation param="Gamma">
    <v type="int" name="divisions">       4        4        4 </v>
    <v name="usershift">      0.00000000       0.00000000       0.00000000 </v>
    <v name="genvec1">      0.25000000       0.00000000       0.00000000 </v>
    <v name="genvec2">      0.00000000       0.25000000       0.00000000 </v>
    <v name="genvec3">      0.00000000       0.00000000       0.25000000 </v>
    <v name="shift">      0.00000000       0.00000000       0.00000000 </v>
   </generation>
   <varray name="kpointlist" >
    <v>       0.00000000       0.00000000       0.00000000 </v>
    <v>       0.25000000       0.00000000       0.00000000 </v>
    <v>       0.00000000       0.25000000       0.00000000 </v>
    <v>      -0.25000000       0.25000000       0.00000000 </v>
    <v>       0.50000000       0.00000000       0.00000000 </v>
    <v>       0.00000000       0.50000000       0.00000000 </v>
    <v>       0.50000000       0.50000000       0.00000000 </v>
    <v>       0.25000000       0.25000000       0.00000000 </v>
    <v>      -0.25000000       0.50000000       0.00000000 </v>
    <v>       0.50000000       0.25000000       0.00000000 </v>
    <v>       0.00000000       0.00000000       0.25000000 </v>
    <v>       0.25000000       0.00000000       0.25000000 </v>
    <v>       0.00000000       0.25000000       0.25000000 </v>
    <v>      -0.25000000       0.25000000       0.25000000 </v>
    <v>      -0.25000000       0.00000000       0.25000000 </v>
    <v>       0.00000000      -0.25000000       0.25000000 </v>
    <v>       0.25000000      -0.25000000       0.25000000 </v>
    <v>       0.50000000       0.00000000       0.25000000 </v>
    <v>       0.00000000       0.50000000       0.25000000 </v>
    <v>       0.50000000       0.50000000       0.25000000 </v>
    <v>       0.25000000       0.25000000       0.25000000 </v>
    <v>      -0.25000000       0.50000000       0.25000000 </v>
    <v>       0.50000000       0.25000000       0.25000000 </v>
    <v>      -0.25000000      -0.25000000       0.25000000 </v>
    <v>       0.25000000       0.50000000       0.25000000 </v>
    <v>       0.50000000      -0.25000000       0.25000000 </v>
    <v>       0.00000000       0.00000000       0.50000000 </v>
    <v>       0.25000000       0.00000000       0.50000000 </v>
    <v>       0.00000000       0.25000000       0.50000000 </v>
    <v>      -0.25000000       0.25000000       0.50000000 </v>
    <v>       0.50000000       0.00000000       0.50000000 </v>
    <v>       0.00000000       0.50000000       0.50000000 </v>
    <v>       0.50000000       0.50000000       0.50000000 </v>
    <v>       0.25000000       0.25000000       0.50000000 </v>
    <v>      -0.25000000       0.50000000       0.50000000 </v>
    <v>       0.50000000       0.25000000       0.50000000 </v>
   </varray>
   <varray name="weights" >
    <v>       0.01562500 </v>
    <v>       0.03125000 </v>
    <v>       0.03125000 </v>
    <v>       0.03125000 </v>
    <v>       0.01562500 </v>
    <v>       0.01562500 </v>
    <v>       0.01562500 </v>
    <v>       0.03125000 </v>
    <v>       0.03125000 </v>
    <v>       0.03125000 </v>
    <v>       0.03125000 </v>
    <v>       0.03125000 </v>
    <v>       0.03125000 </v>
    <v>       0.03125000 </v>
    <v>       0.03125000 </v>
    <v>       0.03125000 </v>
    <v>       0.03125000 </v>
    <v>       0.03125000 </v>
    <v>       0.03125000 </v>
    <v>       0.03125000 </v>
    <v>       0.03125000 </v>
    <v>       0.03125000 </v>
    <v>       0.03125000 </v>
    <v>       0.03125000 </v>
    <v>       0.03125000 </v>
    <v>       0.03125000 </v>
    <v>       0.01562500 </v>
    <v>       0.03125000 </v>
    <v>       0.03125000 </v>
    <v>       0.03125000 </v>
    <v>       0.01562500 </v>
    <v>       0.01562500 </v>
    <v>       0.01562500 </v>
    <v>       0.03125000 </v>
    <v>       0.03125000 </v>
    <v>       0.03125000 </v>
   </varray>
  </kpoints>
  <scstep>
   <time name="total">    2.24    1.77</time>
   <energy>
    <i name="e_fr_energy">     -0.48761101 </i>
    <i name="e_wo_entrp">     -0.48761101 </i>
    <i name="e_0_energy">     -0.48761101 </i>
   </energy>
  </scstep>
  <scstep>
   <time name="total">    2.31    1.83</time>
   <energy>
    <i name="e_fr_energy">     -0.48965556 </i>
    <i name="e_wo_entrp">     -0.48965556 </i>
    <i name="e_0_energy">     -0.48965556 </i>
   </energy>
  </scstep>
  <scstep>
   <time name="total">    2.33    1.83</time>
   <energy>
    <i name="e_fr_energy">     -0.47439411 </i>
    <i name="e_wo_entrp">     -0.47439411 </i>
    <i name="e_0_energy">     -0.47439411 </i>
   </energy>
  </scstep>
  <scstep>
   <time name="total">    2.33    1.84</time>
   <energy>
    <i name="e_fr_energy">     -0.48763551 </i>
    <i name="e_wo_entrp">     -0.48763551 </i>
    <i name="e_0_energy">     -0.48763551 </i>
   </energy>
  </scstep>
  <scstep>
   <time name="total">    2.39    1.86</time>
   <energy>
    <i name="e_fr_energy">     -0.50387852 </i>
    <i name="e_wo_entrp">     -0.50387852 </i>
    <i name="e_0_energy">     -0.50387852 </i>
   </energy>
  </scstep>
  <scstep>
   <time name="total">    2.30    1.81</time>
   <energy>
    <i name="e_fr_energy">     -0.50671621 </i>
    <i name="e_wo_entrp">     -0.50671621 </i>
    <i name="e_0_energy">     -0.50671621 </i>
   </energy>
  </scstep>
  <scstep>
   <time name="total">    2.35    1.86</time>
   <energy>
    <i name="e_fr_energy">     -0.50696092 </i>
    <i name="e_wo_entrp">     -0.50696092 </i>
    <i name="e_0_energy">     -0.50696092 </i>
   </energy>
  </scstep>
  <scstep>
   <time name="total">    2.34    1.85</time>
   <energy>
    <i name="e_fr_energy">     -0.50722655 </i>
    <i name="e_wo_entrp">     -0.50722655 </i>
    <i name="e_0_energy">     -0.50722655 </i>
   </energy>
  </scstep>
  <scstep>
   <time name="total">    2.37    1.88</time>
   <energy>
    <i name="e_fr_energy">     -0.50724914 </i>
    <i name="e_wo_entrp">     -0.50724914 </i>
    <i name="e_0_energy">     -0.50724914 </i>
   </energy>
  </scstep>
  <scstep>
   <time name="total">    2.52    1.93</time>
   <energy>
    <i name="e_fr_energy">     -0.50725035 </i>
    <i name="e_wo_entrp">     -0.50725035 </i>
    <i name="e_0_energy">     -0.50725035 </i>
   </energy>
  </scstep>
  <scstep>
   <time name="total">    2.42    1.93</time>
   <energy>
    <i name="e_fr_energy">     -0.50724941 </i>
    <i name="e_wo_entrp">     -0.50724941 </i>
    <i name="e_0_energy">     -0.50724941 </i>
   </energy>
  </scstep>
  <scstep>
   <time name="total">    2.34    1.85</time>
   <energy>
    <i name="e_fr_energy">     -0.50724955 </i>
    <i name="e_wo_entrp">     -0.50724955 </i>
    <i name="e_0_energy">     -0.50724955 </i>
   </energy>
  </scstep>
  <scstep>
   <time name="total">    2.39    1.90</time>
   <energy>
    <i name="e_fr_energy">     -0.50724952 </i>
    <i name="e_wo_entrp">     -0.50724952 </i>
    <i name="e_0_energy">     -0.50724952 </i>
   </energy>
  </scstep>
  <scstep>
   <time name="total">    2.37    1.88</time>
   <energy>
    <i name="e_fr_energy">     -0.50724955 </i>
    <i name="e_wo_entrp">     -0.50724955 </i>
    <i name="e_0_energy">     -0.50724955 </i>
   </energy>
  </scstep>
  <kpoints>
   <generation param="Gamma">
    <v type="int" name="divisions">       4        4        4 </v>
    <v name="usershift">      0.00000000       0.00000000       0.00000000 </v>
    <v name="genvec1">      0.25000000       0.00000000       0.00000000 </v>
    <v name="genvec2">      0.00000000       0.25000000       0.00000000 </v>
    <v name="genvec3">      0.00000000       0.00000000       0.25000000 </v>
    <v name="shift">      0.00000000       0.00000000       0.00000000 </v>
   </generation>
   <varray name="kpointlist" >
    <v>       0.00000000       0.00000000       0.00000000 </v>
    <v>       0.25000000       0.00000000       0.00000000 </v>
    <v>       0.00000000       0.25000000       0.00000000 </v>
    <v>       0.50000000       0.00000000       0.00000000 </v>
    <v>       0.00000000       0.50000000       0.00000000 </v>
    <v>       0.25000000       0.25000000       0.00000000 </v>
    <v>       0.50000000       0.25000000       0.00000000 </v>
    <v>       0.00000000       0.00000000       0.25000000 </v>
    <v>       0.25000000       0.00000000       0.25000000 </v>
    <v>       0.00000000       0.25000000       0.25000000 </v>
    <v>      -0.25000000       0.00000000       0.25000000 </v>
    <v>       0.00000000      -0.25000000       0.25000000 </v>
    <v>       0.50000000       0.00000000       0.25000000 </v>
    <v>       0.00000000       0.50000000       0.25000000 </v>
    <v>       0.25000000       0.25000000       0.25000000 </v>
    <v>       0.50000000       0.25000000       0.25000000 </v>
    <v>      -0.25000000      -0.25000000       0.25000000 </v>
    <v>       0.00000000       0.00000000       0.50000000 </v>
    <v>       0.25000000       0.00000000       0.50000000 </v>
    <v>       0.00000000       0.25000000       0.50000000 </v>
    <v>       0.50000000       0.00000000       0.50000000 </v>
    <v>       0.00000000       0.50000000       0.50000000 </v>
    <v>       0.25000000       0.25000000       0.50000000 </v>
    <v>       0.50000000       0.25000000       0.50000000 </v>
   </varray>
   <varray name="weights" >
    <v>       0.01562500 </v>
    <v>       0.06250000 </v>
    <v>       0.03125000 </v>
    <v>       0.03125000 </v>
    <v>       0.01562500 </v>
    <v>       0.06250000 </v>
    <v>       0.03125000 </v>
    <v>       0.03125000 </v>
    <v>       0.06250000 </v>
    <v>       0.03125000 </v>
    <v>       0.06250000 </v>
    <v>       0.03125000 </v>
    <v>       0.06250000 </v>
    <v>       0.03125000 </v>
    <v>       0.06250000 </v>
    <v>       0.06250000 </v>
    <v>       0.06250000 </v>
    <v>       0.01562500 </v>
    <v>       0.06250000 </v>
    <v>       0.03125000 </v>
    <v>       0.03125000 </v>
    <v>       0.01562500 </v>
    <v>       0.06250000 </v>
    <v>       0.03125000 </v>
   </varray>
  </kpoints>
  <varray name="dielectric_dft" >
   <v>       2.48069046       0.00000000       0.00000000 </v>
   <v>       0.00000000       2.48094636       0.00002062 </v>
   <v>       0.00000000       0.00001818       2.51334475 </v>
  </varray>
  <varray name="epsilon" >
   <v>       2.48069046       0.00000000       0.00000000 </v>
   <v>       0.00000000       2.48094636       0.00002062 </v>
   <v>       0.00000000       0.00001818       2.51334475 </v>
  </varray>
  <kpoints>
   <generation param="Gamma">
    <v type="int" name="divisions">       4        4        4 </v>
    <v name="usershift">      0.00000000       0.00000000       0.00000000 </v>
    <v name="genvec1">      0.25000000       0.00000000       0.00000000 </v>
    <v name="genvec2">      0.00000000       0.25000000       0.00000000 </v>
    <v name="genvec3">      0.00000000       0.00000000       0.25000000 </v>
    <v name="shift">      0.00000000       0.00000000       0.00000000 </v>
   </generation>
   <varray name="kpointlist" >
    <v>       0.00000000       0.00000000       0.00000000 </v>
    <v>       0.25000000       0.00000000       0.00000000 </v>
    <v>       0.00000000       0.25000000       0.00000000 </v>
    <v>       0.50000000       0.00000000       0.00000000 </v>
    <v>       0.00000000       0.50000000       0.00000000 </v>
    <v>       0.25000000       0.25000000       0.00000000 </v>
    <v>       0.50000000       0.25000000       0.00000000 </v>
    <v>       0.00000000       0.00000000       0.25000000 </v>
    <v>       0.25000000       0.00000000       0.25000000 </v>
    <v>       0.00000000       0.25000000       0.25000000 </v>
    <v>      -0.25000000       0.00000000       0.25000000 </v>
    <v>       0.00000000      -0.25000000       0.25000000 </v>
    <v>       0.50000000       0.00000000       0.25000000 </v>
    <v>       0.00000000       0.50000000       0.25000000 </v>
    <v>       0.25000000       0.25000000       0.25000000 </v>
    <v>       0.50000000       0.25000000       0.25000000 </v>
    <v>      -0.25000000      -0.25000000       0.25000000 </v>
    <v>       0.00000000       0.00000000       0.50000000 </v>
    <v>       0.25000000       0.00000000       0.50000000 </v>
    <v>       0.00000000       0.25000000       0.50000000 </v>
    <v>       0.50000000       0.00000000       0.50000000 </v>
    <v>       0.00000000       0.50000000       0.50000000 </v>
    <v>       0.25000000       0.25000000       0.50000000 </v>
    <v>       0.50000000       0.25000000       0.50000000 </v>
   </varray>
   <varray name="weights" >
    <v>       0.01562500 </v>
    <v>       0.06250000 </v>
    <v>       0.03125000 </v>
    <v>       0.03125000 </v>
    <v>       0.01562500 </v>
    <v>       0.06250000 </v>
    <v>       0.03125000 </v>
    <v>       0.03125000 </v>
    <v>       0.06250000 </v>
    <v>       0.03125000 </v>
    <v>       0.06250000 </v>
    <v>       0.03125000 </v>
    <v>       0.06250000 </v>
    <v>       0.03125000 </v>
    <v>       0.06250000 </v>
    <v>       0.06250000 </v>
    <v>       0.06250000 </v>
    <v>       0.01562500 </v>
    <v>       0.06250000 </v>
    <v>       0.03125000 </v>
    <v>       0.03125000 </v>
    <v>       0.01562500 </v>
    <v>       0.06250000 </v>
    <v>       0.03125000 </v>
   </varray>
  </kpoints>
  <array name="born_charges" >
   <dimension dim="1">ion</dimension>
   <set>
    <v>       2.98038706       0.00000000      -0.00000000 </v>
    <v>       0.00000000       3.61996692      -0.32054499 </v>
    <v>       0.00000000       0.27867853       3.42663319 </v>
   </set>
   <set>
    <v>       3.46021698       0.27764701       0.27855020 </v>
    <v>       0.27732812       3.14119627       0.16106465 </v>
    <v>      -0.24078411      -0.13837496       3.42472715 </v>
   </set>
   <set>
    <v>       3.46021698      -0.27764701      -0.27855020 </v>
    <v>      -0.27732812       3.14119627       0.16106465 </v>
    <v>       0.24078411      -0.13837496       3.42472715 </v>
   </set>
   <set>
    <v>      -1.31144746      -0.49365439      -0.31054431 </v>
    <v>      -0.43682758      -1.99007850      -0.67968533 </v>
    <v>      -0.24378900      -0.72209917      -1.71332429 </v>
   </set>
   <set>
    <v>      -2.22212895      -0.09041120       0.74242566 </v>
    <v>      -0.03279994      -1.07841604       0.07089292 </v>
    <v>       0.74631872       0.14997204      -1.71204681 </v>
   </set>
   <set>
    <v>      -1.41683410       0.49705492      -0.43282854 </v>
    <v>       0.55416283      -1.88268520       0.60800026 </v>
    <v>      -0.50277900       0.57116283      -1.71267265 </v>
   </set>
   <set>
    <v>      -1.31144746       0.49365439       0.31054431 </v>
    <v>       0.43682758      -1.99007850      -0.67968533 </v>
    <v>       0.24378900      -0.72209917      -1.71332429 </v>
   </set>
   <set>
    <v>      -2.22212895       0.09041120      -0.74242566 </v>
    <v>       0.03279994      -1.07841604       0.07089292 </v>
    <v>      -0.74631872       0.14997204      -1.71204681 </v>
   </set>
   <set>
    <v>      -1.41683410      -0.49705492       0.43282854 </v>
    <v>      -0.55416283      -1.88268520       0.60800026 </v>
    <v>       0.50277900       0.57116283      -1.71267265 </v>
   </set>
  </array>
  <time name="totalsc">  315.48  184.77</time>
  <eigenvalues>
   <array>
    <dimension dim="1">band</dimension>
    <dimension dim="2">kpoint</dimension>
    <dimension dim="3">spin</dimension>
    <field>eigene</field>
    <field>occ</field>
    <set>
     <set comment="spin 1">
      <set comment="kpoint 1">
       <r>  -18.1719    1.0000 </r>
       <r>  -16.6203    1.0000 </r>
       <r>  -16.6199    1.0000 </r>
       <r>  -15.9517    1.0000 </r>
       <r>  -15.9424    1.0000 </r>
       <r>  -15.9422    1.0000 </r>
       <r>   -6.8795    1.0000 </r>
       <r>   -6.8784    1.0000 </r>
       <r>   -4.1465    1.0000 </r>
       <r>   -4.0639    1.0000 </r>
       <r>   -3.9116    1.0000 </r>
       <r>   -3.9107    1.0000 </r>
       <r>   -1.6865    1.0000 </r>
       <r>   -1.6848    1.0000 </r>
       <r>   -1.3748    1.0000 </r>
       <r>   -1.1506    1.0000 </r>
       <r>   -0.1557    1.0000 </r>
       <r>   -0.1552    1.0000 </r>
       <r>   -0.0980    1.0000 </r>
       <r>    0.2605    1.0000 </r>
       <r>    0.2621    1.0000 </r>
       <r>    0.4586    1.0000 </r>
       <r>    1.0037    1.0000 </r>
       <r>    1.0047    1.0000 </r>
       <r>    7.3235    0.0000 </r>
       <r>   10.6063    0.0000 </r>
       <r>   10.6107    0.0000 </r>
       <r>   11.2363    0.0000 </r>
       <r>   11.2370    0.0000 </r>
      </set>
      <set comment="kpoint 2">
       <r>  -17.9879    1.0000 </r>
       <r>  -16.8197    1.0000 </r>
       <r>  -16.5939    1.0000 </r>
       <r>  -16.0196    1.0000 </r>
       <r>  -15.9754    1.0000 </r>
       <r>  -15.9418    1.0000 </r>
       <r>   -6.9569    1.0000 </r>
       <r>   -6.5092    1.0000 </r>
       <r>   -4.2179    1.0000 </r>
       <r>   -4.1543    1.0000 </r>
       <r>   -4.0328    1.0000 </r>
       <r>   -3.6181    1.0000 </r>
       <r>   -1.8727    1.0000 </r>
       <r>   -1.5570    1.0000 </r>
       <r>   -1.3481    1.0000 </r>
       <r>   -0.8970    1.0000 </r>
       <r>   -0.6972    1.0000 </r>
       <r>   -0.2397    1.0000 </r>
       <r>   -0.1599    1.0000 </r>
       <r>    0.1802    1.0000 </r>
       <r>    0.2774    1.0000 </r>
       <r>    0.4206    1.0000 </r>
       <r>    1.0533    1.0000 </r>
       <r>    1.1417    1.0000 </r>
       <r>    8.2329    0.0000 </r>
       <r>   10.6705    0.0000 </r>
       <r>   10.7193    0.0000 </r>
       <r>   11.2070    0.0000 </r>
       <r>   11.4825    0.0000 </r>
      </set>
      <set comment="kpoint 3">
       <r>  -17.9880    1.0000 </r>
       <r>  -16.8198    1.0000 </r>
       <r>  -16.5933    1.0000 </r>
       <r>  -16.0175    1.0000 </r>
       <r>  -15.9764    1.0000 </r>
       <r>  -15.9432    1.0000 </r>
       <r>   -6.9569    1.0000 </r>
       <r>   -6.5092    1.0000 </r>
       <r>   -4.2170    1.0000 </r>
       <r>   -4.1540    1.0000 </r>
       <r>   -4.0323    1.0000 </r>
       <r>   -3.6205    1.0000 </r>
       <r>   -1.8732    1.0000 </r>
       <r>   -1.5560    1.0000 </r>
       <r>   -1.3469    1.0000 </r>
       <r>   -0.8967    1.0000 </r>
       <r>   -0.6972    1.0000 </r>
       <r>   -0.2382    1.0000 </r>
       <r>   -0.1603    1.0000 </r>
       <r>    0.1775    1.0000 </r>
       <r>    0.2758    1.0000 </r>
       <r>    0.4218    1.0000 </r>
       <r>    1.0540    1.0000 </r>
       <r>    1.1414    1.0000 </r>
       <r>    8.2332    0.0000 </r>
       <r>   10.6679    0.0000 </r>
       <r>   10.7215    0.0000 </r>
       <r>   11.2077    0.0000 </r>
       <r>   11.4831    0.0000 </r>
      </set>
      <set comment="kpoint 4">
       <r>  -17.6648    1.0000 </r>
       <r>  -17.1820    1.0000 </r>
       <r>  -16.5653    1.0000 </r>
       <r>  -16.0460    1.0000 </r>
       <r>  -16.0000    1.0000 </r>
       <r>  -15.9675    1.0000 </r>
       <r>   -7.0308    1.0000 </r>
       <r>   -6.0433    1.0000 </r>
       <r>   -4.5571    1.0000 </r>
       <r>   -4.0966    1.0000 </r>
       <r>   -4.0890    1.0000 </r>
       <r>   -3.2805    1.0000 </r>
       <r>   -1.8241    1.0000 </r>
       <r>   -1.6223    1.0000 </r>
       <r>   -1.4356    1.0000 </r>
       <r>   -1.0014    1.0000 </r>
       <r>   -0.7934    1.0000 </r>
       <r>   -0.4789    1.0000 </r>
       <r>   -0.2880    1.0000 </r>
       <r>    0.1965    1.0000 </r>
       <r>    0.2825    1.0000 </r>
       <r>    0.5588    1.0000 </r>
       <r>    1.0151    1.0000 </r>
       <r>    1.2412    1.0000 </r>
       <r>    9.6343    0.0000 </r>
       <r>   10.3711    0.0000 </r>
       <r>   10.9666    0.0000 </r>
       <r>   10.9891    0.0000 </r>
       <r>   11.9991    0.0000 </r>
      </set>
      <set comment="kpoint 5">
       <r>  -17.6653    1.0000 </r>
       <r>  -17.1820    1.0000 </r>
       <r>  -16.5638    1.0000 </r>
       <r>  -16.0434    1.0000 </r>
       <r>  -16.0023    1.0000 </r>
       <r>  -15.9690    1.0000 </r>
       <r>   -7.0300    1.0000 </r>
       <r>   -6.0452    1.0000 </r>
       <r>   -4.5543    1.0000 </r>
       <r>   -4.0949    1.0000 </r>
       <r>   -4.0899    1.0000 </r>
       <r>   -3.2844    1.0000 </r>
       <r>   -1.8234    1.0000 </r>
       <r>   -1.6235    1.0000 </r>
       <r>   -1.4333    1.0000 </r>
       <r>   -1.0006    1.0000 </r>
       <r>   -0.7904    1.0000 </r>
       <r>   -0.4806    1.0000 </r>
       <r>   -0.2873    1.0000 </r>
       <r>    0.1933    1.0000 </r>
       <r>    0.2806    1.0000 </r>
       <r>    0.5610    1.0000 </r>
       <r>    1.0149    1.0000 </r>
       <r>    1.2411    1.0000 </r>
       <r>    9.6368    0.0000 </r>
[...]
       <r>    1.1196    1.0000 </r>
       <r>   10.2273    0.0000 </r>
       <r>   10.7245    0.0000 </r>
       <r>   11.0153    0.0000 </r>
       <r>   11.2011    0.0000 </r>
       <r>   11.5372    0.0000 </r>
      </set>
      <set comment="kpoint 22">
       <r>  -17.5878    1.0000 </r>
       <r>  -17.1411    1.0000 </r>
       <r>  -16.7035    1.0000 </r>
       <r>  -16.0748    1.0000 </r>
       <r>  -15.9924    1.0000 </r>
       <r>  -15.9598    1.0000 </r>
       <r>   -6.8753    1.0000 </r>
       <r>   -5.9150    1.0000 </r>
       <r>   -5.0465    1.0000 </r>
       <r>   -3.9973    1.0000 </r>
       <r>   -3.7078    1.0000 </r>
       <r>   -3.6137    1.0000 </r>
       <r>   -1.9317    1.0000 </r>
       <r>   -1.9236    1.0000 </r>
       <r>   -1.1424    1.0000 </r>
       <r>   -0.8277    1.0000 </r>
       <r>   -0.7466    1.0000 </r>
       <r>   -0.2755    1.0000 </r>
       <r>    0.0239    1.0000 </r>
       <r>    0.1890    1.0000 </r>
       <r>    0.3995    1.0000 </r>
       <r>    0.4022    1.0000 </r>
       <r>    0.6982    1.0000 </r>
       <r>    1.1191    1.0000 </r>
       <r>   10.2273    0.0000 </r>
       <r>   10.7266    0.0000 </r>
       <r>   11.0131    0.0000 </r>
       <r>   11.1984    0.0000 </r>
       <r>   11.5422    0.0000 </r>
      </set>
      <set comment="kpoint 23">
       <r>  -17.5755    1.0000 </r>
       <r>  -17.1857    1.0000 </r>
       <r>  -16.6521    1.0000 </r>
       <r>  -16.0620    1.0000 </r>
       <r>  -15.9934    1.0000 </r>
       <r>  -15.9920    1.0000 </r>
       <r>   -6.8566    1.0000 </r>
       <r>   -5.8698    1.0000 </r>
       <r>   -5.1561    1.0000 </r>
       <r>   -3.8982    1.0000 </r>
       <r>   -3.7954    1.0000 </r>
       <r>   -3.6152    1.0000 </r>
       <r>   -1.9741    1.0000 </r>
       <r>   -1.7472    1.0000 </r>
       <r>   -1.2639    1.0000 </r>
       <r>   -0.9002    1.0000 </r>
       <r>   -0.6224    1.0000 </r>
       <r>   -0.4221    1.0000 </r>
       <r>    0.1493    1.0000 </r>
       <r>    0.2563    1.0000 </r>
       <r>    0.3285    1.0000 </r>
       <r>    0.5704    1.0000 </r>
       <r>    0.7159    1.0000 </r>
       <r>    0.9246    1.0000 </r>
       <r>   10.1777    0.0000 </r>
       <r>   10.6506    0.0000 </r>
       <r>   10.9613    0.0000 </r>
       <r>   11.3057    0.0000 </r>
       <r>   11.7231    0.0000 </r>
      </set>
      <set comment="kpoint 24">
       <r>  -17.5748    1.0000 </r>
       <r>  -17.1864    1.0000 </r>
       <r>  -16.6528    1.0000 </r>
       <r>  -16.0611    1.0000 </r>
       <r>  -15.9931    1.0000 </r>
       <r>  -15.9925    1.0000 </r>
       <r>   -6.8566    1.0000 </r>
       <r>   -5.8705    1.0000 </r>
       <r>   -5.1562    1.0000 </r>
       <r>   -3.8970    1.0000 </r>
       <r>   -3.7943    1.0000 </r>
       <r>   -3.6161    1.0000 </r>
       <r>   -1.9735    1.0000 </r>
       <r>   -1.7462    1.0000 </r>
       <r>   -1.2664    1.0000 </r>
       <r>   -0.9005    1.0000 </r>
       <r>   -0.6224    1.0000 </r>
       <r>   -0.4224    1.0000 </r>
       <r>    0.1494    1.0000 </r>
       <r>    0.2545    1.0000 </r>
       <r>    0.3283    1.0000 </r>
       <r>    0.5728    1.0000 </r>
       <r>    0.7175    1.0000 </r>
       <r>    0.9232    1.0000 </r>
       <r>   10.1758    0.0000 </r>
       <r>   10.6519    0.0000 </r>
       <r>   10.9671    0.0000 </r>
       <r>   11.3033    0.0000 </r>
       <r>   11.7222    0.0000 </r>
      </set>
     </set>
    </set>
   </array>
  </eigenvalues>
  <separator name="orbital magnetization" >
   <v name="MAGDIPOLOUT">      0.00000000      0.00000000      0.00000000</v>
  </separator>
  <dos>
   <i name="efermi">      1.78462751 </i>
   <total>
    <array>
     <dimension dim="1">gridpoints</dimension>
     <dimension dim="2">spin</dimension>
     <field>energy</field>
     <field>total</field>
     <field>integrated</field>
     <set>
      <set comment="spin 1">
       <r>   -19.6805     0.0000     0.0000 </r>
       <r>   -19.5699     0.0000     0.0000 </r>
       <r>   -19.4592     0.0000     0.0000 </r>
       <r>   -19.3486     0.0000     0.0000 </r>
       <r>   -19.2380     0.0000     0.0000 </r>
       <r>   -19.1274     0.0000     0.0000 </r>
       <r>   -19.0167     0.0000     0.0000 </r>
       <r>   -18.9061     0.0000     0.0000 </r>
       <r>   -18.7955     0.0000     0.0000 </r>
       <r>   -18.6849     0.0000     0.0000 </r>
       <r>   -18.5742     0.0000     0.0000 </r>
       <r>   -18.4636     0.0000     0.0000 </r>
       <r>   -18.3530     0.0015     0.0002 </r>
       <r>   -18.2423     0.0455     0.0052 </r>
       <r>   -18.1317     0.2561     0.0335 </r>
       <r>   -18.0211     0.9593     0.1396 </r>
       <r>   -17.9105     2.1805     0.3809 </r>
       <r>   -17.7998     2.2490     0.6297 </r>
       <r>   -17.6892     3.1560     0.9788 </r>
       <r>   -17.5786     6.7081     1.7209 </r>
       <r>   -17.4680     3.7420     2.1349 </r>
       <r>   -17.3573     0.7676     2.2198 </r>
       <r>   -17.2467     1.6675     2.4043 </r>
       <r>   -17.1361     7.3337     3.2156 </r>
       <r>   -17.0254     4.7013     3.7357 </r>
       <r>   -16.9148     0.5608     3.7977 </r>
       <r>   -16.8042     0.9820     3.9063 </r>
       <r>   -16.6936     2.7463     4.2102 </r>
       <r>   -16.5829     6.4598     4.9248 </r>
       <r>   -16.4723     3.7473     5.3393 </r>
       <r>   -16.3617     1.9948     5.5600 </r>
       <r>   -16.2511     2.2038     5.8038 </r>
       <r>   -16.1404     3.0162     6.1375 </r>
       <r>   -16.0298    16.1047     7.9191 </r>
       <r>   -15.9192    27.1225    10.9196 </r>
       <r>   -15.8085     9.2304    11.9407 </r>
       <r>   -15.6979     0.5316    11.9995 </r>
       <r>   -15.5873     0.0042    12.0000 </r>
       <r>   -15.4767     0.0000    12.0000 </r>
       <r>   -15.3660     0.0000    12.0000 </r>
       <r>   -15.2554     0.0000    12.0000 </r>
       <r>   -15.1448     0.0000    12.0000 </r>
       <r>   -15.0342     0.0000    12.0000 </r>
       <r>   -14.9235     0.0000    12.0000 </r>
       <r>   -14.8129     0.0000    12.0000 </r>
       <r>   -14.7023     0.0000    12.0000 </r>
       <r>   -14.5916     0.0000    12.0000 </r>
       <r>   -14.4810     0.0000    12.0000 </r>
       <r>   -14.3704     0.0000    12.0000 </r>
       <r>   -14.2598     0.0000    12.0000 </r>
       <r>   -14.1491     0.0000    12.0000 </r>
       <r>   -14.0385     0.0000    12.0000 </r>
       <r>   -13.9279     0.0000    12.0000 </r>
       <r>   -13.8173     0.0000    12.0000 </r>
       <r>   -13.7066     0.0000    12.0000 </r>
       <r>   -13.5960     0.0000    12.0000 </r>
       <r>   -13.4854     0.0000    12.0000 </r>
       <r>   -13.3747     0.0000    12.0000 </r>
       <r>   -13.2641     0.0000    12.0000 </r>
       <r>   -13.1535     0.0000    12.0000 </r>
       <r>   -13.0429     0.0000    12.0000 </r>
       <r>   -12.9322     0.0000    12.0000 </r>
       <r>   -12.8216     0.0000    12.0000 </r>
       <r>   -12.7110     0.0000    12.0000 </r>
       <r>   -12.6004     0.0000    12.0000 </r>
       <r>   -12.4897     0.0000    12.0000 </r>
       <r>   -12.3791     0.0000    12.0000 </r>
       <r>   -12.2685     0.0000    12.0000 </r>
       <r>   -12.1579     0.0000    12.0000 </r>
       <r>   -12.0472     0.0000    12.0000 </r>
       <r>   -11.9366     0.0000    12.0000 </r>
       <r>   -11.8260     0.0000    12.0000 </r>
       <r>   -11.7153     0.0000    12.0000 </r>
       <r>   -11.6047     0.0000    12.0000 </r>
       <r>   -11.4941     0.0000    12.0000 </r>
       <r>   -11.3835     0.0000    12.0000 </r>
       <r>   -11.2728     0.0000    12.0000 </r>
       <r>   -11.1622     0.0000    12.0000 </r>
       <r>   -11.0516     0.0000    12.0000 </r>
       <r>   -10.9410     0.0000    12.0000 </r>
       <r>   -10.8303     0.0000    12.0000 </r>
       <r>   -10.7197     0.0000    12.0000 </r>
       <r>   -10.6091     0.0000    12.0000 </r>
       <r>   -10.4984     0.0000    12.0000 </r>
       <r>   -10.3878     0.0000    12.0000 </r>
       <r>   -10.2772     0.0000    12.0000 </r>
       <r>   -10.1666     0.0000    12.0000 </r>
       <r>   -10.0559     0.0000    12.0000 </r>
       <r>    -9.9453     0.0000    12.0000 </r>
       <r>    -9.8347     0.0000    12.0000 </r>
       <r>    -9.7241     0.0000    12.0000 </r>
       <r>    -9.6134     0.0000    12.0000 </r>
       <r>    -9.5028     0.0000    12.0000 </r>
       <r>    -9.3922     0.0000    12.0000 </r>
       <r>    -9.2815     0.0000    12.0000 </r>
       <r>    -9.1709     0.0000    12.0000 </r>
       <r>    -9.0603     0.0000    12.0000 </r>
       <r>    -8.9497     0.0000    12.0000 </r>
       <r>    -8.8390     0.0000    12.0000 </r>
       <r>    -8.7284     0.0000    12.0000 </r>
       <r>    -8.6178     0.0000    12.0000 </r>
       <r>    -8.5072     0.0000    12.0000 </r>
       <r>    -8.3965     0.0000    12.0000 </r>
       <r>    -8.2859     0.0000    12.0000 </r>
       <r>    -8.1753     0.0001    12.0000 </r>
       <r>    -8.0646     0.0118    12.0013 </r>
       <r>    -7.9540     0.1112    12.0136 </r>
       <r>    -7.8434     0.1386    12.0290 </r>
       <r>    -7.7328     0.0941    12.0394 </r>
       <r>    -7.6221     0.4178    12.0856 </r>
       <r>    -7.5115     0.9758    12.1935 </r>
       <r>    -7.4009     1.2324    12.3299 </r>
       <r>    -7.2903     1.9618    12.5469 </r>
       <r>    -7.1796     1.0259    12.6604 </r>
       <r>    -7.0690     1.3967    12.8149 </r>
       <r>    -6.9584     4.6286    13.3269 </r>
       <r>    -6.8477     4.7430    13.8517 </r>
       <r>    -6.7371     1.5083    14.0185 </r>
       <r>    -6.6265     0.1963    14.0402 </r>
       <r>    -6.5159     0.7027    14.1180 </r>
       <r>    -6.4052     0.7912    14.2055 </r>
       <r>    -6.2946     0.1180    14.2185 </r>
       <r>    -6.1840     0.0261    14.2214 </r>
       <r>    -6.0734     0.5292    14.2800 </r>
       <r>    -5.9627     3.4334    14.6598 </r>
       <r>    -5.8521     6.9586    15.4296 </r>
       <r>    -5.7415     2.9751    15.7587 </r>
       <r>    -5.6308     0.2018    15.7811 </r>
       <r>    -5.5202     0.0177    15.7830 </r>
       <r>    -5.4096     0.3520    15.8220 </r>
       <r>    -5.2990     0.9961    15.9322 </r>
       <r>    -5.1883     0.9266    16.0347 </r>
       <r>    -5.0777     2.1970    16.2777 </r>
       <r>    -4.9671     3.8983    16.7090 </r>
       <r>    -4.8565     2.9739    17.0380 </r>
       <r>    -4.7458     1.8750    17.2454 </r>
       <r>    -4.6352     1.8020    17.4447 </r>
       <r>    -4.5246     1.9945    17.6654 </r>
       <r>    -4.4139     0.6200    17.7340 </r>
       <r>    -4.3033     0.7495    17.8169 </r>
       <r>    -4.1927     3.0910    18.1588 </r>
       <r>    -4.0821     8.8711    19.1402 </r>
       <r>    -3.9714     9.6798    20.2111 </r>
       <r>    -3.8608     6.6548    20.9473 </r>
       <r>    -3.7502     6.7691    21.6961 </r>
       <r>    -3.6396     5.6618    22.3225 </r>
       <r>    -3.5289     5.6948    22.9525 </r>
       <r>    -3.4183     5.0889    23.5154 </r>
       <r>    -3.3077     2.6646    23.8102 </r>
       <r>    -3.1971     1.4520    23.9709 </r>
       <r>    -3.0864     0.2576    23.9993 </r>
       <r>    -2.9758     0.0059    24.0000 </r>
       <r>    -2.8652     0.0000    24.0000 </r>
       <r>    -2.7545     0.0000    24.0000 </r>
       <r>    -2.6439     0.0000    24.0000 </r>
       <r>    -2.5333     0.0000    24.0000 </r>
       <r>    -2.4227     0.0000    24.0000 </r>
       <r>    -2.3120     0.0000    24.0000 </r>
       <r>    -2.2014     0.0015    24.0002 </r>
       <r>    -2.0908     0.1629    24.0182 </r>
       <r>    -1.9802     2.6290    24.3090 </r>
       <r>    -1.8695     7.9558    25.1892 </r>
       <r>    -1.7589     8.1310    26.0887 </r>
       <r>    -1.6483     6.8197    26.8431 </r>
       <r>    -1.5376     5.3461    27.4345 </r>
       <r>    -1.4270     6.3654    28.1387 </r>
       <r>    -1.3164     8.4974    29.0788 </r>
       <r>    -1.2058     5.9455    29.7365 </r>
       <r>    -1.0951     3.8893    30.1668 </r>
       <r>    -0.9845     4.8489    30.7032 </r>
       <r>    -0.8739     8.3930    31.6317 </r>
       <r>    -0.7633     6.9390    32.3993 </r>
       <r>    -0.6526     7.3761    33.2153 </r>
       <r>    -0.5420     6.3248    33.9150 </r>
       <r>    -0.4314     6.2608    34.6076 </r>
       <r>    -0.3207     5.9522    35.2661 </r>
       <r>    -0.2101     8.0526    36.1569 </r>
       <r>    -0.0995     9.8406    37.2456 </r>
       <r>     0.0111     8.1699    38.1494 </r>
       <r>     0.1218     8.9411    39.1385 </r>
       <r>     0.2324     9.4920    40.1886 </r>
       <r>     0.3430    10.6972    41.3720 </r>
       <r>     0.4536     8.7431    42.3392 </r>
       <r>     0.5643     5.7930    42.9801 </r>
       <r>     0.6749     6.2838    43.6752 </r>
       <r>     0.7855     5.2741    44.2587 </r>
       <r>     0.8962     6.6545    44.9949 </r>
       <r>     1.0068     6.7051    45.7366 </r>
       <r>     1.1174     7.8287    46.6027 </r>
       <r>     1.2280     8.3010    47.5210 </r>
       <r>     1.3387     3.7723    47.9383 </r>
       <r>     1.4493     0.5442    47.9985 </r>
       <r>     1.5599     0.0133    48.0000 </r>
       <r>     1.6705     0.0000    48.0000 </r>
       <r>     1.7812     0.0000    48.0000 </r>
       <r>     1.8918     0.0000    48.0000 </r>
       <r>     2.0024     0.0000    48.0000 </r>
       <r>     2.1131     0.0000    48.0000 </r>
       <r>     2.2237     0.0000    48.0000 </r>
       <r>     2.3343     0.0000    48.0000 </r>
       <r>     2.4449     0.0000    48.0000 </r>
       <r>     2.5556     0.0000    48.0000 </r>
       <r>     2.6662     0.0000    48.0000 </r>
       <r>     2.7768     0.0000    48.0000 </r>
       <r>     2.8874     0.0000    48.0000 </r>
       <r>     2.9981     0.0000    48.0000 </r>
       <r>     3.1087     0.0000    48.0000 </r>
       <r>     3.2193     0.0000    48.0000 </r>
       <r>     3.3300     0.0000    48.0000 </r>
       <r>     3.4406     0.0000    48.0000 </r>
       <r>     3.5512     0.0000    48.0000 </r>
       <r>     3.6618     0.0000    48.0000 </r>
       <r>     3.7725     0.0000    48.0000 </r>
       <r>     3.8831     0.0000    48.0000 </r>
       <r>     3.9937     0.0000    48.0000 </r>
       <r>     4.1043     0.0000    48.0000 </r>
       <r>     4.2150     0.0000    48.0000 </r>
       <r>     4.3256     0.0000    48.0000 </r>
       <r>     4.4362     0.0000    48.0000 </r>
       <r>     4.5468     0.0000    48.0000 </r>
       <r>     4.6575     0.0000    48.0000 </r>
       <r>     4.7681     0.0000    48.0000 </r>
       <r>     4.8787     0.0000    48.0000 </r>
       <r>     4.9894     0.0000    48.0000 </r>
       <r>     5.1000     0.0000    48.0000 </r>
       <r>     5.2106     0.0000    48.0000 </r>
       <r>     5.3212     0.0000    48.0000 </r>
       <r>     5.4319     0.0000    48.0000 </r>
       <r>     5.5425     0.0000    48.0000 </r>
       <r>     5.6531     0.0000    48.0000 </r>
       <r>     5.7637     0.0000    48.0000 </r>
       <r>     5.8744     0.0000    48.0000 </r>
       <r>     5.9850     0.0000    48.0000 </r>
       <r>     6.0956     0.0000    48.0000 </r>
       <r>     6.2063     0.0000    48.0000 </r>
       <r>     6.3169     0.0000    48.0000 </r>
       <r>     6.4275     0.0000    48.0000 </r>
       <r>     6.5381     0.0000    48.0000 </r>
       <r>     6.6488     0.0000    48.0000 </r>
       <r>     6.7594     0.0000    48.0000 </r>
       <r>     6.8700     0.0000    48.0000 </r>
       <r>     6.9806     0.0000    48.0000 </r>
       <r>     7.0913     0.0001    48.0000 </r>
       <r>     7.2019     0.0119    48.0013 </r>
       <r>     7.3125     0.1118    48.0137 </r>
       <r>     7.4232     0.1362    48.0288 </r>
       <r>     7.5338     0.0220    48.0312 </r>
       <r>     7.6444     0.0004    48.0313 </r>
       <r>     7.7550     0.0030    48.0316 </r>
       <r>     7.8657     0.0876    48.0413 </r>
       <r>     7.9763     0.3142    48.0760 </r>
       <r>     8.0869     0.1839    48.0964 </r>
       <r>     8.1975     0.4983    48.1515 </r>
       <r>     8.3082     0.9290    48.2543 </r>
       <r>     8.4188     0.2369    48.2805 </r>
       <r>     8.5294     0.0564    48.2867 </r>
       <r>     8.6401     0.8076    48.3761 </r>
       <r>     8.7507     1.8593    48.5818 </r>
       <r>     8.8613     0.6427    48.6528 </r>
       <r>     8.9719     0.0306    48.6562 </r>
       <r>     9.0826     0.0006    48.6563 </r>
       <r>     9.1932     0.0287    48.6595 </r>
       <r>     9.3038     0.2509    48.6872 </r>
       <r>     9.4144     0.5721    48.7505 </r>
       <r>     9.5251     1.0740    48.8693 </r>
       <r>     9.6357     1.4459    49.0293 </r>
       <r>     9.7463     3.0630    49.3681 </r>
       <r>     9.8570     2.9793    49.6977 </r>
       <r>     9.9676     1.7567    49.8921 </r>
       <r>    10.0782     0.5473    49.9526 </r>
       <r>    10.1888     1.0763    50.0717 </r>
       <r>    10.2995     1.3730    50.2236 </r>
       <r>    10.4101     2.0522    50.4506 </r>
       <r>    10.5207     3.1203    50.7958 </r>
       <r>    10.6313     5.0548    51.3550 </r>
       <r>    10.7420     9.0535    52.3565 </r>
       <r>    10.8526     6.2038    53.0429 </r>
       <r>    10.9632     6.5206    53.7642 </r>
       <r>    11.0739     7.3695    54.5795 </r>
       <r>    11.1845     3.0230    54.9139 </r>
       <r>    11.2951     3.6621    55.3190 </r>
       <r>    11.4057     5.6539    55.9445 </r>
       <r>    11.5164     6.3194    56.6436 </r>
       <r>    11.6270     5.3574    57.2363 </r>
       <r>    11.7376     3.3719    57.6093 </r>
       <r>    11.8482     2.1713    57.8495 </r>
       <r>    11.9589     0.7344    57.9307 </r>
       <r>    12.0695     0.4928    57.9853 </r>
       <r>    12.1801     0.1290    57.9995 </r>
       <r>    12.2907     0.0043    58.0000 </r>
       <r>    12.4014     0.0000    58.0000 </r>
       <r>    12.5120     0.0000    58.0000 </r>
       <r>    12.6226     0.0000    58.0000 </r>
       <r>    12.7333     0.0000    58.0000 </r>
       <r>    12.8439     0.0000    58.0000 </r>
       <r>    12.9545     0.0000    58.0000 </r>
       <r>    13.0651     0.0000    58.0000 </r>
       <r>    13.1758     0.0000    58.0000 </r>
       <r>    13.2864     0.0000    58.0000 </r>
       <r>    13.3970     0.0000    58.0000 </r>
       <r>    13.5076     0.0000    58.0000 </r>
      </set>
     </set>
    </array>
   </total>
  </dos>
 </calculation>
 <structure name="finalpos" >
  <crystal>
   <varray name="basis" >
    <v>       4.87342988       0.00000000       0.00000000 </v>
    <v>      -2.43671494       4.22051408       0.00000000 </v>
    <v>       0.00000000       0.00000000       5.37418982 </v>
   </varray>
   <i name="volume">    110.53837516 </i>
   <varray name="rec_basis" >
    <v>       0.20519429       0.11846898      -0.00000000 </v>
    <v>       0.00000000       0.23693796       0.00000000 </v>
    <v>       0.00000000      -0.00000000       0.18607456 </v>
   </varray>
  </crystal>
  <varray name="positions" >
   <v>       0.46471958       0.00000000       0.66666667 </v>
   <v>       0.99984718       0.46458822       0.33325859 </v>
   <v>       0.53525895       0.53541178       0.00007474 </v>
   <v>       0.13561964       0.72401853       0.55402595 </v>
   <v>       0.27602372       0.41154562       0.22093979 </v>
   <v>       0.58863065       0.86467793       0.88760058 </v>
   <v>       0.41160111       0.27598147       0.77930739 </v>
   <v>       0.86447810       0.58845438       0.11239354 </v>
   <v>       0.72395273       0.13532207       0.44573276 </v>
  </varray>
 </structure>
</modeling>
