<?xml version="1.0" encoding="ISO-8859-1"?>
<modeling>
 <generator>
  <i name="program" type="string">vasp </i>
  <i name="version" type="string">6.4.1  </i>
  <i name="subversion" type="string">05Apr23 (build Sep  6 2023 20:49:31) complex                          parallel </i>
  <i name="platform" type="string">LinuxNV </i>
  <i name="date" type="string">2023 10 19 </i>
  <i name="time" type="string">14:05:35 </i>
 </generator>
 <incar>
  <i type="string" name="PREC">Accurate</i>
  <i type="string" name="ALGO">Fast</i>
  <i name="EDIFF">      0.00000001</i>
  <i name="ENCUT">    500.00000000</i>
  <i type="int" name="ISMEAR">     0</i>
  <i name="SIGMA">      0.10000000</i>
  <i type="logical" name="LEPSILON"> T  </i>
 </incar>
 <primitive_cell>
  <structure name="primitive_cell" >
   <crystal>
    <varray name="basis" >
     <v>       4.87342988       0.00000000       0.00000000 </v>
     <v>      -2.43671494       4.22051408       0.00000000 </v>
     <v>       0.00000000       0.00000000       5.37418982 </v>
    </varray>
    <i name="volume">    110.53837516 </i>
    <varray name="rec_basis" >
     <v>       0.20519429       0.11846898      -0.00000000 </v>
     <v>       0.00000000       0.23693796       0.00000000 </v>
     <v>       0.00000000      -0.00000000       0.18607456 </v>
    </varray>
   </crystal>
   <varray name="positions" >
    <v>       0.46463522       0.99990454       0.66659295 </v>
    <v>       0.00009546       0.46473068       0.33325961 </v>
    <v>       0.53526932       0.53536478       0.99992628 </v>
    <v>       0.13530525       0.72393544       0.55425348 </v>
    <v>       0.27606456       0.41136981       0.22092014 </v>
    <v>       0.58863019       0.86469475       0.88758681 </v>
    <v>       0.41164091       0.27597042       0.77920927 </v>
    <v>       0.86432951       0.58835909       0.11254260 </v>
    <v>       0.72402958       0.13567049       0.44587593 </v>
   </varray>
  </structure>
  <varray name="primitive_index" >
   <v type="int" >        1 </v>
   <v type="int" >        2 </v>
   <v type="int" >        3 </v>
   <v type="int" >        4 </v>
   <v type="int" >        5 </v>
   <v type="int" >        6 </v>
   <v type="int" >        7 </v>
   <v type="int" >        8 </v>
   <v type="int" >        9 </v>
  </varray>
 </primitive_cell>
 <kpoints>
  <generation param="Gamma">
   <v type="int" name="divisions">       4        4        4 </v>
   <v name="usershift">      0.00000000       0.00000000       0.00000000 </v>
   <v name="genvec1">      0.25000000       0.00000000       0.00000000 </v>
   <v name="genvec2">      0.00000000       0.25000000       0.00000000 </v>
   <v name="genvec3">      0.00000000       0.00000000       0.25000000 </v>
   <v name="shift">      0.00000000       0.00000000       0.00000000 </v>
  </generation>
  <varray name="kpointlist" >
   <v>       0.00000000       0.00000000       0.00000000 </v>
   <v>       0.25000000       0.00000000       0.00000000 </v>
   <v>       0.50000000       0.00000000       0.00000000 </v>
   <v>       0.25000000       0.25000000       0.00000000 </v>
   <v>       0.00000000       0.00000000       0.25000000 </v>
   <v>       0.25000000       0.00000000       0.25000000 </v>
   <v>       0.00000000       0.25000000       0.25000000 </v>
   <v>       0.50000000       0.00000000       0.25000000 </v>
   <v>       0.25000000       0.25000000       0.25000000 </v>
   <v>      -0.25000000       0.50000000       0.25000000 </v>
   <v>       0.00000000       0.00000000       0.50000000 </v>
   <v>       0.25000000       0.00000000       0.50000000 </v>
   <v>       0.50000000       0.00000000       0.50000000 </v>
   <v>       0.25000000       0.25000000       0.50000000 </v>
  </varray>
  <varray name="weights" >
   <v>       0.01562500 </v>
   <v>       0.09375000 </v>
   <v>       0.04687500 </v>
   <v>       0.09375000 </v>
   <v>       0.03125000 </v>
   <v>       0.09375000 </v>
   <v>       0.09375000 </v>
   <v>       0.09375000 </v>
   <v>       0.09375000 </v>
   <v>       0.09375000 </v>
   <v>       0.01562500 </v>
   <v>       0.09375000 </v>
   <v>       0.04687500 </v>
   <v>       0.09375000 </v>
  </varray>
 </kpoints>
 <parameters>
  <separator name="general" >
   <i type="string" name="SYSTEM">unknown system</i>
   <i type="logical" name="LCOMPAT"> F  </i>
  </separator>
  <separator name="electronic" >
   <i type="string" name="PREC">accura</i>
   <i name="ENMAX">    500.00000000</i>
   <i name="ENAUG">    605.39200000</i>
   <i name="EDIFF">      0.00000001</i>
   <i type="int" name="IALGO">    68</i>
   <i type="int" name="IWAVPR">    10</i>
   <i type="int" name="NBANDS">    29</i>
   <i type="int" name="NBANDSLOW">    -1</i>
   <i type="int" name="NBANDSHIGH">    -1</i>
   <i name="NELECT">     48.00000000</i>
   <i type="int" name="TURBO">     0</i>
   <i type="int" name="IRESTART">     0</i>
   <i type="int" name="NREBOOT">     0</i>
   <i type="int" name="NMIN">     0</i>
   <i name="EREF">      0.00000000</i>
   <separator name="electronic smearing" >
    <i type="int" name="ISMEAR">     0</i>
    <i name="SIGMA">      0.10000000</i>
    <i name="KSPACING">      0.50000000</i>
    <i type="logical" name="KGAMMA"> T  </i>
    <i type="logical" name="KBLOWUP"> T  </i>
   </separator>
   <separator name="electronic projectors" >
    <i type="logical" name="LREAL"> F  </i>
    <v name="ROPT">      0.00000000      0.00000000</v>
    <i type="int" name="LMAXPAW">  -100</i>
    <i type="int" name="LMAXMIX">     2</i>
    <i type="logical" name="NLSPLINE"> F  </i>
   </separator>
   <separator name="electronic startup" >
    <i type="int" name="ISTART">     0</i>
    <i type="int" name="ICHARG">     2</i>
    <i type="int" name="INIWAV">     1</i>
   </separator>
   <separator name="electronic spin" >
    <i type="int" name="ISPIN">     1</i>
    <i type="logical" name="LNONCOLLINEAR"> F  </i>
    <v name="MAGMOM">      1.00000000      1.00000000      1.00000000      1.00000000      1.00000000      1.00000000      1.00000000      1.00000000      1.00000000</v>
    <i name="NUPDOWN">     -1.00000000</i>
    <i type="logical" name="LSORBIT"> F  </i>
    <v name="SAXIS">      0.00000000      0.00000000      1.00000000</v>
    <i type="logical" name="LSPIRAL"> F  </i>
    <v name="QSPIRAL">      0.00000000      0.00000000      0.00000000</v>
    <i type="logical" name="LZEROZ"> F  </i>
   </separator>
   <separator name="electronic exchange-correlation" >
    <i type="logical" name="LASPH"> F  </i>
    <i type="logical" name="LMETAGGA"> F  </i>
   </separator>
   <separator name="electronic convergence" >
    <i type="int" name="NELM">    60</i>
    <i type="int" name="NELMDL">    -5</i>
    <i type="int" name="NELMIN">     2</i>
    <i name="ENINI">    500.00000000</i>
    <separator name="electronic convergence detail" >
     <i type="logical" name="LDIAG"> T  </i>
     <i type="logical" name="LSUBROT"> F  </i>
     <i name="WEIMIN">      0.00000000</i>
     <i name="EBREAK">      0.00000000</i>
     <i name="DEPER">      0.30000000</i>
     <i type="int" name="NRMM">     4</i>
     <i name="TIME">      0.40000000</i>
    </separator>
   </separator>
   <separator name="electronic mixer" >
    <i name="AMIX">      0.40000000</i>
    <i name="BMIX">      1.00000000</i>
    <i name="AMIN">      0.10000000</i>
    <i name="AMIX_MAG">      1.60000000</i>
    <i name="BMIX_MAG">      1.00000000</i>
    <separator name="electronic mixer details" >
     <i type="int" name="IMIX">     4</i>
     <i type="logical" name="MIXFIRST"> F  </i>
     <i type="int" name="MAXMIX">   -45</i>
     <i name="WC">    100.00000000</i>
     <i type="int" name="INIMIX">     1</i>
     <i type="int" name="MIXPRE">     1</i>
     <i type="int" name="MREMOVE">     5</i>
    </separator>
   </separator>
   <separator name="electronic dipolcorrection" >
    <i type="logical" name="LDIPOL"> F  </i>
    <i type="logical" name="LMONO"> F  </i>
    <i type="int" name="IDIPOL">     0</i>
    <i name="EPSILON">      1.00000000</i>
    <v name="DIPOL">   -100.00000000   -100.00000000   -100.00000000</v>
    <i name="EFIELD">      0.00000000</i>
   </separator>
  </separator>
  <separator name="grids" >
   <i type="int" name="NGX">    36</i>
   <i type="int" name="NGY">    36</i>
   <i type="int" name="NGZ">    40</i>
   <i type="int" name="NGXF">    72</i>
   <i type="int" name="NGYF">    72</i>
   <i type="int" name="NGZF">    80</i>
   <i type="logical" name="ADDGRID"> F  </i>
  </separator>
  <separator name="ionic" >
   <i type="int" name="NSW">     0</i>
   <i type="int" name="IBRION">    -1</i>
   <i type="int" name="MDALGO">     0</i>
   <i type="int" name="ISIF">     2</i>
   <i name="PSTRESS">      0.00000000</i>
   <i name="EDIFFG">      0.00000010</i>
   <i type="int" name="NFREE">     0</i>
   <i name="POTIM">      0.50000000</i>
   <i name="SMASS">     -3.00000000</i>
   <i name="SCALEE">      1.00000000</i>
  </separator>
  <separator name="ionic md" >
   <i name="TEBEG">      0.00010000</i>
   <i name="TEEND">      0.00010000</i>
   <i type="int" name="NBLOCK">     1</i>
   <i type="int" name="KBLOCK">     1</i>
   <i type="int" name="NPACO">   256</i>
   <i name="APACO">     10.00000000</i>
  </separator>
  <separator name="symmetry" >
   <i type="int" name="ISYM">     2</i>
   <i name="SYMPREC">      0.00001000</i>
  </separator>
  <separator name="dos" >
   <i type="int" name="LORBIT">     0</i>
   <v name="RWIGS">     -1.00000000     -1.00000000</v>
   <i type="int" name="NEDOS">   301</i>
   <i name="EMIN">     10.00000000</i>
   <i name="EMAX">    -10.00000000</i>
   <i name="EFERMI">      0.00000000</i>
  </separator>
  <separator name="writing" >
   <i type="int" name="NWRITE">     2</i>
   <i type="logical" name="LWAVE"> T  </i>
   <i type="logical" name="LDOWNSAMPLE"> F  </i>
   <i type="logical" name="LCHARG"> T  </i>
   <i type="logical" name="LPARD"> F  </i>
   <i type="logical" name="LVTOT"> F  </i>
   <i type="logical" name="LVHAR"> F  </i>
   <i type="logical" name="LELF"> F  </i>
   <i type="logical" name="LOPTICS"> F  </i>
   <v name="STM">      0.00000000      0.00000000      0.00000000      0.00000000      0.00000000      0.00000000      0.00000000</v>
  </separator>
  <separator name="performance" >
   <i type="int" name="NPAR">     1</i>
   <i type="int" name="NSIM">     4</i>
   <i type="int" name="NBLK">    -1</i>
   <i type="logical" name="LPLANE"> T  </i>
   <i type="logical" name="LSCALAPACK"> T  </i>
   <i type="logical" name="LSCAAWARE"> F  </i>
   <i type="logical" name="LSCALU"> F  </i>
   <i type="logical" name="LASYNC"> F  </i>
   <i type="logical" name="LORBITALREAL"> F  </i>
  </separator>
  <separator name="miscellaneous" >
   <i type="int" name="IDIOT">     3</i>
   <i type="int" name="PHON_NSTRUCT">    -1</i>
   <i type="logical" name="LMUSIC"> F  </i>
   <v name="POMASS">     28.08500000     16.00000000</v>
   <v name="DARWINR">      0.00000000      0.00000000</v>
   <v name="DARWINV">      1.00000000      1.00000000</v>
   <i type="logical" name="LCORR"> T  </i>
  </separator>
  <i type="logical" name="GGA_COMPAT"> T  </i>
  <i type="logical" name="LBERRY"> F  </i>
  <i type="int" name="ICORELEVEL">     0</i>
  <i type="logical" name="LDAU"> F  </i>
  <i type="int" name="I_CONSTRAINED_M">     0</i>
  <separator name="electronic exchange-correlation" >
   <i type="string" name="GGA">--</i>
   <i type="int" name="VOSKOWN">     0</i>
   <i type="logical" name="LHFCALC"> F  </i>
   <i type="string" name="PRECFOCK"></i>
   <i type="logical" name="LSYMGRAD"> F  </i>
   <i type="logical" name="LHFONE"> F  </i>
   <i type="logical" name="LRHFCALC"> F  </i>
   <i type="logical" name="LTHOMAS"> F  </i>
   <i type="logical" name="LMODELHF"> F  </i>
   <i type="logical" name="LFOCKACE"> F  </i>
   <i name="ENCUT4O">     -1.00000000</i>
   <i type="int" name="EXXOEP">     0</i>
   <i type="int" name="FOURORBIT">     0</i>
   <i name="AEXX">      0.00000000</i>
   <i name="HFALPHA">      0.00000000</i>
   <i name="MCALPHA">      0.00000000</i>
   <i name="ALDAX">      1.00000000</i>
   <i name="AGGAX">      1.00000000</i>
   <i name="ALDAC">      1.00000000</i>
   <i name="AGGAC">      1.00000000</i>
   <i type="int" name="NKREDX">     1</i>
   <i type="int" name="NKREDY">     1</i>
   <i type="int" name="NKREDZ">     1</i>
   <i type="logical" name="SHIFTRED"> F  </i>
   <i type="logical" name="ODDONLY"> F  </i>
   <i type="logical" name="EVENONLY"> F  </i>
   <i type="int" name="LMAXFOCK">     0</i>
   <i type="int" name="NMAXFOCKAE">     0</i>
   <i type="logical" name="LFOCKAEDFT"> F  </i>
   <i name="HFSCREEN">      0.00000000</i>
   <i name="HFSCREENC">      0.00000000</i>
   <i type="int" name="NBANDSGWLOW">     0</i>
  </separator>
  <separator name="vdW DFT" >
   <i type="logical" name="LUSE_VDW"> F  </i>
   <i type="int" name="IVDW_NL">     1</i>
   <i type="logical" name="LSPIN_VDW"> F  </i>
   <i name="Zab_VDW">     -0.84910000</i>
   <i name="PARAM1">      0.12340000</i>
   <i name="PARAM2">      1.00000000</i>
   <i name="PARAM3">      0.00000000</i>
  </separator>
  <separator name="model GW" >
   <i type="int" name="MODEL_GW">     0</i>
   <i name="MODEL_EPS0">      7.36922501</i>
   <i name="MODEL_ALPHA">      1.00000000</i>
  </separator>
  <separator name="linear response parameters" >
   <i type="logical" name="LEPSILON"> T  </i>
   <i type="logical" name="LRPA"> F  </i>
   <i type="logical" name="LNABLA"> F  </i>
   <i type="logical" name="LVEL"> F  </i>
   <i name="CSHIFT">      0.10000000</i>
   <i name="OMEGAMAX">     -1.00000000</i>
   <i name="DEG_THRESHOLD">      0.00200000</i>
   <i name="RTIME">     -0.10000000</i>
   <i name="WPLASMAI">      0.00000000</i>
   <v name="DFIELD">      0.00000000      0.00000000      0.00000000</v>
   <v name="WPLASMA">      0.00000000      0.00000000      0.00000000      0.00000000      0.00000000      0.00000000      0.00000000      0.00000000      0.00000000</v>
  </separator>
  <separator name="orbital magnetization" >
   <i type="logical" name="NUCIND"> F  </i>
   <v name="MAGPOS">      0.00000000      0.00000000      0.00000000</v>
   <i type="logical" name="LNICSALL"> T  </i>
   <i type="logical" name="ORBITALMAG"> F  </i>
   <i type="logical" name="LMAGBLOCH"> F  </i>
   <i type="logical" name="LCHIMAG"> F  </i>
   <i type="logical" name="LGAUGE"> T  </i>
   <i type="int" name="MAGATOM">     0</i>
   <v name="MAGDIPOL">      0.00000000      0.00000000      0.00000000</v>
   <v name="AVECCONST">      0.00000000      0.00000000      0.00000000</v>
  </separator>
  <separator name="response functions" >
   <i type="logical" name="LALL_IN_ONE"> F  </i>
   <i type="int" name="IALL_IN_ONE">    -1</i>
   <i type="int" name="NBANDS_WAVE">    -1</i>
   <i type="logical" name="LFINITE_TEMPERATURE"> F  </i>
   <i type="logical" name="LADDER"> F  </i>
   <i type="logical" name="LRPAFORCE"> F  </i>
   <i type="logical" name="LFXC"> F  </i>
   <i type="logical" name="LHARTREE"> T  </i>
   <i type="int" name="IBSE">     0</i>
   <v type="int" name="KPOINT">    -1     0     0     0</v>
   <i type="logical" name="LTCTC"> F  </i>
   <i type="logical" name="LTCTE"> F  </i>
   <i type="logical" name="LTETE"> F  </i>
   <i type="logical" name="LTRIPLET"> F  </i>
   <i type="logical" name="LFXCEPS"> F  </i>
   <i type="logical" name="LFXHEG"> F  </i>
   <i type="int" name="NATURALO">     2</i>
   <i type="logical" name="LHOLEGF"> F  </i>
   <i type="logical" name="L2ORDER"> F  </i>
   <i type="logical" name="LDMP1"> F  </i>
   <i type="logical" name="LMP2LT"> F  </i>
   <i type="logical" name="LSMP2LT"> F  </i>
   <i type="logical" name="LGWLF"> F  </i>
   <i name="ENCUTGW">     -1.60000002</i>
   <i name="ENCUTGWSOFT">     -1.60000002</i>
   <i name="ENCUTLF">     -1.00000000</i>
   <i type="logical" name="LESF_SPLINES"> F  </i>
   <i type="int" name="LMAXMP2">    -1</i>
   <i name="SCISSOR">      0.00000000</i>
   <i type="int" name="NOMEGA">     0</i>
   <i type="int" name="NOMEGAR">     0</i>
   <i type="int" name="NBANDSGW">    -1</i>
   <i type="int" name="NBANDSO">    -1</i>
   <i type="int" name="NBANDSV">    -1</i>
   <i type="int" name="NELMGW">     1</i>
   <i type="int" name="NELMHF">     1</i>
   <i type="int" name="DIM">     3</i>
   <i type="int" name="IESPILON">     4</i>
   <i type="int" name="ANTIRES">     0</i>
   <i name="OMEGAMAX">    -30.00000000</i>
   <i name="OMEGAMIN">    -30.00000000</i>
   <i name="OMEGATL">   -200.00000000</i>
   <i type="int" name="OMEGAGRID">     0</i>
   <i name="CSHIFT">     -0.10000000</i>
   <i type="logical" name="LSELFENERGY"> F  </i>
   <i type="logical" name="LSPECTRAL"> F  </i>
   <i type="logical" name="LSPECTRALGW"> F  </i>
   <i type="logical" name="LSINGLES"> F  </i>
   <i type="logical" name="LFERMIGW"> F  </i>
   <i type="logical" name="ODDONLYGW"> F  </i>
   <i type="logical" name="EVENONLYGW"> F  </i>
   <i type="int" name="NKREDLFX">     1</i>
   <i type="int" name="NKREDLFY">     1</i>
   <i type="int" name="NKREDLFZ">     1</i>
   <i type="int" name="MAXMEM">  2800</i>
   <i type="int" name="TELESCOPE">     0</i>
   <i type="int" name="NTAUPAR">    -1</i>
   <i type="int" name="NOMEGAPAR">    -1</i>
   <i name="DAMP_NEWTON">      0.80000001</i>
   <i name="LAMBDA">      1.00000000</i>
  </separator>
  <separator name="External order field" >
   <i name="OFIELD_KAPPA">      0.00000000</i>
   <v name="OFIELD_K">      0.00000000      0.00000000      0.00000000</v>
   <i name="OFIELD_Q6_NEAR">      0.00000000</i>
   <i name="OFIELD_Q6_FAR">      0.00000000</i>
   <i name="OFIELD_A">      0.00000000</i>
  </separator>
  <separator name="optional k-points parameters" >
   <i type="int" name="KPOINTS_OPT_MODE">     1</i>
   <i type="logical" name="LKPOINTS_OPT"> F  </i>
  </separator>
 </parameters>
 <atominfo>
  <atoms>       9 </atoms>
  <types>       2 </types>
  <array name="atoms" >
   <dimension dim="1">ion</dimension>
   <field type="string">element</field>
   <field type="int">atomtype</field>
   <set>
    <rc><c>Si</c><c>   1</c></rc>
    <rc><c>Si</c><c>   1</c></rc>
    <rc><c>Si</c><c>   1</c></rc>
    <rc><c>O </c><c>   2</c></rc>
    <rc><c>O </c><c>   2</c></rc>
    <rc><c>O </c><c>   2</c></rc>
    <rc><c>O </c><c>   2</c></rc>
    <rc><c>O </c><c>   2</c></rc>
    <rc><c>O </c><c>   2</c></rc>
   </set>
  </array>
  <array name="atomtypes" >
   <dimension dim="1">type</dimension>
   <field type="int">atomspertype</field>
   <field type="string">element</field>
   <field>mass</field>
   <field>valence</field>
   <field type="string">pseudopotential</field>
   <set>
    <rc><c>   3</c><c>Si</c><c>     28.08500000</c><c>      4.00000000</c><c>  PAW_PBE Si 05Jan2001                  </c></rc>
    <rc><c>   6</c><c>O </c><c>     16.00000000</c><c>      6.00000000</c><c>  PAW_PBE O 08Apr2002                   </c></rc>
   </set>
  </array>
 </atominfo>
 <structure name="initialpos" >
  <crystal>
   <varray name="basis" >
    <v>       4.87342988       0.00000000       0.00000000 </v>
    <v>      -2.43671494       4.22051408       0.00000000 </v>
    <v>       0.00000000       0.00000000       5.37418982 </v>
   </varray>
   <i name="volume">    110.53837516 </i>
   <varray name="rec_basis" >
    <v>       0.20519429       0.11846898      -0.00000000 </v>
    <v>       0.00000000       0.23693796       0.00000000 </v>
    <v>       0.00000000      -0.00000000       0.18607456 </v>
   </varray>
  </crystal>
  <varray name="positions" >
   <v>       0.46463522       0.99990454       0.66659295 </v>
   <v>       0.00009546       0.46473068       0.33325961 </v>
   <v>       0.53526932       0.53536478       0.99992628 </v>
   <v>       0.13530525       0.72393544       0.55425348 </v>
   <v>       0.27606456       0.41136981       0.22092014 </v>
   <v>       0.58863019       0.86469475       0.88758681 </v>
   <v>       0.41164091       0.27597042       0.77920927 </v>
   <v>       0.86432951       0.58835909       0.11254260 </v>
   <v>       0.72402958       0.13567049       0.44587593 </v>
  </varray>
 </structure>
 <calculation>
  <scstep>
   <time name="dav">    0.51    0.52</time>
   <time name="total">    0.54    0.54</time>
   <energy>
    <i name="alphaZ">     71.30271804 </i>
    <i name="ewald">  -1930.19439629 </i>
    <i name="hartreedc">   -909.39704569 </i>
    <i name="XCdc">    141.70968901 </i>
    <i name="pawpsdc">   2343.66826019 </i>
    <i name="pawaedc">  -2301.68043871 </i>
    <i name="eentropy">     -0.00952009 </i>
    <i name="bandstr">    -15.81037964 </i>
    <i name="atom">   2903.33737771 </i>
    <i name="e_fr_energy">    302.92626453 </i>
    <i name="e_wo_entrp">    302.93578462 </i>
    <i name="e_0_energy">    302.93102457 </i>
   </energy>
  </scstep>
  <scstep>
   <time name="dav">    0.48    0.48</time>
   <time name="total">    0.48    0.48</time>
   <energy>
    <i name="e_fr_energy">    -60.95121526 </i>
    <i name="e_wo_entrp">    -60.95121526 </i>
    <i name="e_0_energy">    -60.95121526 </i>
   </energy>
  </scstep>
  <scstep>
   <time name="dav">    0.44    0.44</time>
   <time name="total">    0.44    0.44</time>
   <energy>
    <i name="e_fr_energy">    -80.16832765 </i>
    <i name="e_wo_entrp">    -80.16832765 </i>
    <i name="e_0_energy">    -80.16832765 </i>
   </energy>
  </scstep>
  <scstep>
   <time name="dav">    0.44    0.44</time>
   <time name="total">    0.44    0.44</time>
   <energy>
    <i name="e_fr_energy">    -80.41815057 </i>
    <i name="e_wo_entrp">    -80.41815057 </i>
    <i name="e_0_energy">    -80.41815057 </i>
   </energy>
  </scstep>
  <scstep>
   <time name="dav">    0.44    0.44</time>
   <time name="total">    0.53    0.51</time>
   <energy>
    <i name="e_fr_energy">    -80.42328028 </i>
    <i name="e_wo_entrp">    -80.42328028 </i>
    <i name="e_0_energy">    -80.42328028 </i>
   </energy>
  </scstep>
  <scstep>
   <time name="diag">    0.05    0.05</time>
   <time name="diis">    0.50    0.50</time>
   <time name="orth">    0.00    0.00</time>
   <time name="total">    0.67    0.62</time>
   <energy>
    <i name="e_fr_energy">    -70.67413895 </i>
    <i name="e_wo_entrp">    -70.67413895 </i>
    <i name="e_0_energy">    -70.67413895 </i>
   </energy>
  </scstep>
  <scstep>
   <time name="diag">    0.05    0.04</time>
   <time name="diis">    0.54    0.55</time>
   <time name="orth">    0.00    0.00</time>
   <time name="total">    0.71    0.67</time>
   <energy>
    <i name="e_fr_energy">    -70.97664462 </i>
    <i name="e_wo_entrp">    -70.97664462 </i>
    <i name="e_0_energy">    -70.97664462 </i>
   </energy>
  </scstep>
  <scstep>
   <time name="diag">    0.05    0.04</time>
   <time name="diis">    0.55    0.55</time>
   <time name="orth">    0.00    0.00</time>
   <time name="total">    0.72    0.67</time>
   <energy>
    <i name="e_fr_energy">    -70.96841738 </i>
    <i name="e_wo_entrp">    -70.96841738 </i>
    <i name="e_0_energy">    -70.96841738 </i>
   </energy>
  </scstep>
  <scstep>
   <time name="diag">    0.05    0.04</time>
   <time name="diis">    0.56    0.56</time>
   <time name="orth">    0.00    0.00</time>
   <time name="total">    0.73    0.68</time>
   <energy>
    <i name="e_fr_energy">    -70.98746231 </i>
    <i name="e_wo_entrp">    -70.98746231 </i>
    <i name="e_0_energy">    -70.98746231 </i>
   </energy>
  </scstep>
  <scstep>
   <time name="diag">    0.05    0.04</time>
   <time name="diis">    0.56    0.56</time>
   <time name="orth">    0.00    0.00</time>
   <time name="total">    0.73    0.68</time>
   <energy>
    <i name="e_fr_energy">    -70.99275982 </i>
    <i name="e_wo_entrp">    -70.99275982 </i>
    <i name="e_0_energy">    -70.99275982 </i>
   </energy>
  </scstep>
  <scstep>
   <time name="diag">    0.05    0.04</time>
   <time name="diis">    0.55    0.56</time>
   <time name="orth">    0.00    0.00</time>
   <time name="total">    0.72    0.68</time>
   <energy>
    <i name="e_fr_energy">    -70.98887276 </i>
    <i name="e_wo_entrp">    -70.98887276 </i>
    <i name="e_0_energy">    -70.98887276 </i>
   </energy>
  </scstep>
  <scstep>
   <time name="diag">    0.05    0.04</time>
   <time name="diis">    0.56    0.56</time>
   <time name="orth">    0.00    0.00</time>
   <time name="total">    0.73    0.68</time>
   <energy>
    <i name="e_fr_energy">    -70.98947339 </i>
    <i name="e_wo_entrp">    -70.98947339 </i>
    <i name="e_0_energy">    -70.98947339 </i>
   </energy>
  </scstep>
  <scstep>
   <time name="diag">    0.05    0.04</time>
   <time name="diis">    0.59    0.59</time>
   <time name="orth">    0.00    0.00</time>
   <time name="total">    0.76    0.71</time>
   <energy>
    <i name="e_fr_energy">    -70.98923336 </i>
    <i name="e_wo_entrp">    -70.98923336 </i>
    <i name="e_0_energy">    -70.98923336 </i>
   </energy>
  </scstep>
  <scstep>
   <time name="diag">    0.05    0.04</time>
   <time name="diis">    0.57    0.57</time>
   <time name="orth">    0.00    0.00</time>
   <time name="total">    0.74    0.69</time>
   <energy>
    <i name="e_fr_energy">    -70.98919250 </i>
    <i name="e_wo_entrp">    -70.98919250 </i>
    <i name="e_0_energy">    -70.98919250 </i>
   </energy>
  </scstep>
  <scstep>
   <time name="diag">    0.05    0.04</time>
   <time name="diis">    0.62    0.62</time>
   <time name="orth">    0.00    0.00</time>
   <time name="total">    0.79    0.74</time>
   <energy>
    <i name="e_fr_energy">    -70.98918972 </i>
    <i name="e_wo_entrp">    -70.98918972 </i>
    <i name="e_0_energy">    -70.98918972 </i>
   </energy>
  </scstep>
  <scstep>
   <time name="diag">    0.05    0.04</time>
   <time name="diis">    0.56    0.56</time>
   <time name="orth">    0.00    0.00</time>
   <time name="total">    0.73    0.68</time>
   <energy>
    <i name="e_fr_energy">    -70.98918838 </i>
    <i name="e_wo_entrp">    -70.98918838 </i>
    <i name="e_0_energy">    -70.98918838 </i>
   </energy>
  </scstep>
  <scstep>
   <time name="diag">    0.05    0.04</time>
   <time name="diis">    0.56    0.56</time>
   <time name="orth">    0.00    0.00</time>
   <time name="total">    0.73    0.68</time>
   <energy>
    <i name="e_fr_energy">    -70.98918861 </i>
    <i name="e_wo_entrp">    -70.98918861 </i>
    <i name="e_0_energy">    -70.98918861 </i>
   </energy>
  </scstep>
  <scstep>
   <time name="diag">    0.05    0.04</time>
   <time name="diis">    0.60    0.60</time>
   <time name="orth">    0.00    0.00</time>
   <time name="total">    0.78    0.72</time>
   <energy>
    <i name="e_fr_energy">    -70.98918881 </i>
    <i name="e_wo_entrp">    -70.98918881 </i>
    <i name="e_0_energy">    -70.98918881 </i>
   </energy>
  </scstep>
  <scstep>
   <time name="diag">    0.05    0.04</time>
   <time name="diis">    0.56    0.56</time>
   <time name="orth">    0.00    0.00</time>
   <time name="total">    0.73    0.68</time>
   <energy>
    <i name="e_fr_energy">    -70.98918877 </i>
    <i name="e_wo_entrp">    -70.98918877 </i>
    <i name="e_0_energy">    -70.98918877 </i>
   </energy>
  </scstep>
  <scstep>
   <time name="diag">    0.05    0.04</time>
   <time name="diis">    0.56    0.56</time>
   <time name="orth">    0.00    0.00</time>
   <time name="total">    0.73    0.68</time>
   <energy>
    <i name="e_fr_energy">    -70.98918880 </i>
    <i name="e_wo_entrp">    -70.98918880 </i>
    <i name="e_0_energy">    -70.98918880 </i>
   </energy>
  </scstep>
  <scstep>
   <time name="diag">    0.05    0.04</time>
   <time name="diis">    0.38    0.38</time>
   <time name="orth">    0.00    0.00</time>
   <time name="total">    0.55    0.50</time>
   <energy>
    <i name="e_fr_energy">    -70.98918878 </i>
    <i name="e_wo_entrp">    -70.98918878 </i>
    <i name="e_0_energy">    -70.98918878 </i>
   </energy>
  </scstep>
  <scstep>
   <time name="diag">    0.05    0.04</time>
   <time name="diis">    0.37    0.38</time>
   <time name="orth">    0.00    0.00</time>
   <time name="total">    0.45    0.43</time>
   <energy>
    <i name="alphaZ">     71.30271804 </i>
    <i name="ewald">  -1930.19439629 </i>
    <i name="hartreedc">  -1040.55669091 </i>
    <i name="XCdc">    150.68542788 </i>
    <i name="pawpsdc">   8045.44460996 </i>
    <i name="pawaedc">  -8005.82240233 </i>
    <i name="eentropy">     -0.00000000 </i>
    <i name="bandstr">   -265.18583284 </i>
    <i name="atom">   2903.33737771 </i>
    <i name="e_fr_energy">    -70.98918877 </i>
    <i name="e_wo_entrp">    -70.98918877 </i>
    <i name="e_0_energy">    -70.98918877 </i>
   </energy>
  </scstep>
  <structure>
   <crystal>
    <varray name="basis" >
     <v>       4.87342988       0.00000000       0.00000000 </v>
     <v>      -2.43671494       4.22051408       0.00000000 </v>
     <v>       0.00000000       0.00000000       5.37418982 </v>
    </varray>
    <i name="volume">    110.53837516 </i>
    <varray name="rec_basis" >
     <v>       0.20519429       0.11846898      -0.00000000 </v>
     <v>       0.00000000       0.23693796       0.00000000 </v>
     <v>       0.00000000      -0.00000000       0.18607456 </v>
    </varray>
   </crystal>
   <varray name="positions" >
    <v>       0.46463522       0.99990454       0.66659295 </v>
    <v>       0.00009546       0.46473068       0.33325961 </v>
    <v>       0.53526932       0.53536478       0.99992628 </v>
    <v>       0.13530525       0.72393544       0.55425348 </v>
    <v>       0.27606456       0.41136981       0.22092014 </v>
    <v>       0.58863019       0.86469475       0.88758681 </v>
    <v>       0.41164091       0.27597042       0.77920927 </v>
    <v>       0.86432951       0.58835909       0.11254260 </v>
    <v>       0.72402958       0.13567049       0.44587593 </v>
   </varray>
  </structure>
  <varray name="forces" >
   <v>       0.01813659       0.00953347       0.00938096 </v>
   <v>      -0.01732452       0.01094001       0.00938096 </v>
   <v>      -0.00081207      -0.02047348       0.00938096 </v>
   <v>      -0.26476256       0.00158163       0.14869077 </v>
   <v>       0.13101155      -0.23008192       0.14869077 </v>
   <v>       0.13375101       0.22850029       0.14869077 </v>
   <v>      -0.28567826       0.00377400      -0.15807173 </v>
   <v>       0.14610751       0.24551763      -0.15807173 </v>
   <v>       0.13957075      -0.24929163      -0.15807173 </v>
  </varray>
  <varray name="stress" >
   <v>      71.96943662       0.00000114       0.00000000 </v>
   <v>      -0.00000114      71.96943662       0.00000000 </v>
   <v>       0.00000000       0.00000000      73.62051896 </v>
  </varray>
  <energy>
   <i name="e_fr_energy">    -70.98918877 </i>
   <i name="e_wo_entrp">    -70.98918877 </i>
   <i name="e_0_energy">    -70.98918877 </i>
  </energy>
  <scstep>
   <time name="total">    7.05    1.50</time>
   <energy>
    <i name="e_fr_energy">   -182.68457522 </i>
    <i name="e_wo_entrp">   -182.68457522 </i>
    <i name="e_0_energy">   -182.68457522 </i>
   </energy>
  </scstep>
  <scstep>
   <time name="total">    6.89    1.32</time>
   <energy>
    <i name="e_fr_energy">   -172.55261741 </i>
    <i name="e_wo_entrp">   -172.55261741 </i>
    <i name="e_0_energy">   -172.55261741 </i>
   </energy>
  </scstep>
  <scstep>
   <time name="total">    6.86    1.32</time>
   <energy>
    <i name="e_fr_energy">   -172.69885334 </i>
    <i name="e_wo_entrp">   -172.69885334 </i>
    <i name="e_0_energy">   -172.69885334 </i>
   </energy>
  </scstep>
  <scstep>
   <time name="total">    0.53    0.54</time>
   <energy>
    <i name="e_fr_energy">   -172.70628105 </i>
    <i name="e_wo_entrp">   -172.70628105 </i>
    <i name="e_0_energy">   -172.70628105 </i>
   </energy>
  </scstep>
  <scstep>
   <time name="total">    0.53    0.53</time>
   <energy>
    <i name="e_fr_energy">   -172.70645120 </i>
    <i name="e_wo_entrp">   -172.70645120 </i>
    <i name="e_0_energy">   -172.70645120 </i>
   </energy>
  </scstep>
  <scstep>
   <time name="total">    0.53    0.53</time>
   <energy>
    <i name="e_fr_energy">   -172.70646207 </i>
    <i name="e_wo_entrp">   -172.70646207 </i>
    <i name="e_0_energy">   -172.70646207 </i>
   </energy>
  </scstep>
  <scstep>
   <time name="total">    0.53    0.53</time>
   <energy>
    <i name="e_fr_energy">   -172.70646225 </i>
    <i name="e_wo_entrp">   -172.70646225 </i>
    <i name="e_0_energy">   -172.70646225 </i>
   </energy>
  </scstep>
  <scstep>
   <time name="total">    0.53    0.53</time>
   <energy>
    <i name="e_fr_energy">   -172.70646252 </i>
    <i name="e_wo_entrp">   -172.70646252 </i>
    <i name="e_0_energy">   -172.70646252 </i>
   </energy>
  </scstep>
  <scstep>
   <time name="total">    0.54    0.54</time>
   <energy>
    <i name="e_fr_energy">   -172.70646316 </i>
    <i name="e_wo_entrp">   -172.70646316 </i>
    <i name="e_0_energy">   -172.70646316 </i>
   </energy>
  </scstep>
  <scstep>
   <time name="total">    0.54    0.54</time>
   <energy>
    <i name="e_fr_energy">   -172.70646345 </i>
    <i name="e_wo_entrp">   -172.70646345 </i>
    <i name="e_0_energy">   -172.70646345 </i>
   </energy>
  </scstep>
  <scstep>
   <time name="total">    7.08    1.50</time>
   <energy>
    <i name="e_fr_energy">   -182.13364938 </i>
    <i name="e_wo_entrp">   -182.13364938 </i>
    <i name="e_0_energy">   -182.13364938 </i>
   </energy>
  </scstep>
  <scstep>
   <time name="total">    6.90    1.31</time>
   <energy>
    <i name="e_fr_energy">   -172.66847229 </i>
    <i name="e_wo_entrp">   -172.66847229 </i>
    <i name="e_0_energy">   -172.66847229 </i>
   </energy>
  </scstep>
  <scstep>
   <time name="total">    6.87    1.33</time>
   <energy>
    <i name="e_fr_energy">   -172.81130128 </i>
    <i name="e_wo_entrp">   -172.81130128 </i>
    <i name="e_0_energy">   -172.81130128 </i>
   </energy>
  </scstep>
  <scstep>
   <time name="total">    0.54    0.54</time>
   <energy>
    <i name="e_fr_energy">   -172.81859444 </i>
    <i name="e_wo_entrp">   -172.81859444 </i>
    <i name="e_0_energy">   -172.81859444 </i>
   </energy>
  </scstep>
  <scstep>
   <time name="total">    0.54    0.54</time>
   <energy>
    <i name="e_fr_energy">   -172.81877946 </i>
    <i name="e_wo_entrp">   -172.81877946 </i>
    <i name="e_0_energy">   -172.81877946 </i>
   </energy>
  </scstep>
  <scstep>
   <time name="total">    0.54    0.54</time>
   <energy>
    <i name="e_fr_energy">   -172.81879539 </i>
    <i name="e_wo_entrp">   -172.81879539 </i>
    <i name="e_0_energy">   -172.81879539 </i>
   </energy>
  </scstep>
  <scstep>
   <time name="total">    0.54    0.54</time>
   <energy>
    <i name="e_fr_energy">   -172.81879625 </i>
    <i name="e_wo_entrp">   -172.81879625 </i>
    <i name="e_0_energy">   -172.81879625 </i>
   </energy>
  </scstep>
  <scstep>
   <time name="total">    0.54    0.55</time>
   <energy>
    <i name="e_fr_energy">   -172.81879628 </i>
    <i name="e_wo_entrp">   -172.81879628 </i>
    <i name="e_0_energy">   -172.81879628 </i>
   </energy>
  </scstep>
  <scstep>
   <time name="total">    0.54    0.54</time>
   <energy>
    <i name="e_fr_energy">   -172.81879527 </i>
    <i name="e_wo_entrp">   -172.81879527 </i>
    <i name="e_0_energy">   -172.81879527 </i>
   </energy>
  </scstep>
  <scstep>
   <time name="total">    0.54    0.54</time>
   <energy>
    <i name="e_fr_energy">   -172.81879492 </i>
    <i name="e_wo_entrp">   -172.81879492 </i>
    <i name="e_0_energy">   -172.81879492 </i>
   </energy>
  </scstep>
  <scstep>
   <time name="total">    7.17    1.53</time>
   <energy>
    <i name="e_fr_energy">   -182.14567731 </i>
    <i name="e_wo_entrp">   -182.14567731 </i>
    <i name="e_0_energy">   -182.14567731 </i>
   </energy>
  </scstep>
  <scstep>
   <time name="total">    6.97    1.32</time>
   <energy>
    <i name="e_fr_energy">   -172.55612601 </i>
    <i name="e_wo_entrp">   -172.55612601 </i>
    <i name="e_0_energy">   -172.55612601 </i>
   </energy>
  </scstep>
  <scstep>
   <time name="total">    6.88    1.32</time>
   <energy>
    <i name="e_fr_energy">   -172.70907629 </i>
    <i name="e_wo_entrp">   -172.70907629 </i>
    <i name="e_0_energy">   -172.70907629 </i>
   </energy>
  </scstep>
  <scstep>
   <time name="total">    0.53    0.53</time>
   <energy>
    <i name="e_fr_energy">   -172.71645537 </i>
    <i name="e_wo_entrp">   -172.71645537 </i>
    <i name="e_0_energy">   -172.71645537 </i>
   </energy>
  </scstep>
  <scstep>
   <time name="total">    0.53    0.53</time>
   <energy>
    <i name="e_fr_energy">   -172.71661380 </i>
    <i name="e_wo_entrp">   -172.71661380 </i>
    <i name="e_0_energy">   -172.71661380 </i>
   </energy>
  </scstep>
  <scstep>
   <time name="total">    0.53    0.53</time>
   <energy>
    <i name="e_fr_energy">   -172.71662231 </i>
    <i name="e_wo_entrp">   -172.71662231 </i>
    <i name="e_0_energy">   -172.71662231 </i>
   </energy>
  </scstep>
  <scstep>
   <time name="total">    0.53    0.54</time>
   <energy>
    <i name="e_fr_energy">   -172.71661955 </i>
    <i name="e_wo_entrp">   -172.71661955 </i>
    <i name="e_0_energy">   -172.71661955 </i>
   </energy>
  </scstep>
  <scstep>
   <time name="total">    0.53    0.53</time>
   <energy>
    <i name="e_fr_energy">   -172.71662977 </i>
    <i name="e_wo_entrp">   -172.71662977 </i>
    <i name="e_0_energy">   -172.71662977 </i>
   </energy>
  </scstep>
  <scstep>
   <time name="total">    0.53    0.53</time>
   <energy>
    <i name="e_fr_energy">   -172.71663297 </i>
    <i name="e_wo_entrp">   -172.71663297 </i>
    <i name="e_0_energy">   -172.71663297 </i>
   </energy>
  </scstep>
  <scstep>
   <time name="total">    0.53    0.53</time>
   <energy>
    <i name="e_fr_energy">   -172.71663164 </i>
    <i name="e_wo_entrp">   -172.71663164 </i>
    <i name="e_0_energy">   -172.71663164 </i>
   </energy>
  </scstep>
  <scstep>
   <time name="total">    1.23    0.76</time>
   <energy>
    <i name="e_fr_energy">     -0.48219598 </i>
    <i name="e_wo_entrp">     -0.48219598 </i>
    <i name="e_0_energy">     -0.48219598 </i>
   </energy>
  </scstep>
  <scstep>
   <time name="total">    1.22    0.76</time>
   <energy>
    <i name="e_fr_energy">     -0.48461925 </i>
    <i name="e_wo_entrp">     -0.48461925 </i>
    <i name="e_0_energy">     -0.48461925 </i>
   </energy>
  </scstep>
  <scstep>
   <time name="total">    1.24    0.77</time>
   <energy>
    <i name="e_fr_energy">     -0.48480163 </i>
    <i name="e_wo_entrp">     -0.48480163 </i>
    <i name="e_0_energy">     -0.48480163 </i>
   </energy>
  </scstep>
  <scstep>
   <time name="total">    1.24    0.77</time>
   <energy>
    <i name="e_fr_energy">     -0.48481024 </i>
    <i name="e_wo_entrp">     -0.48481024 </i>
    <i name="e_0_energy">     -0.48481024 </i>
   </energy>
  </scstep>
  <scstep>
   <time name="total">    1.24    0.77</time>
   <energy>
    <i name="e_fr_energy">     -0.48481054 </i>
    <i name="e_wo_entrp">     -0.48481054 </i>
    <i name="e_0_energy">     -0.48481054 </i>
   </energy>
  </scstep>
  <scstep>
   <time name="total">    1.21    0.74</time>
   <energy>
    <i name="e_fr_energy">     -0.48481056 </i>
    <i name="e_wo_entrp">     -0.48481056 </i>
    <i name="e_0_energy">     -0.48481056 </i>
   </energy>
  </scstep>
  <scstep>
   <time name="total">    1.17    0.70</time>
   <energy>
    <i name="e_fr_energy">     -0.48481056 </i>
    <i name="e_wo_entrp">     -0.48481056 </i>
    <i name="e_0_energy">     -0.48481056 </i>
   </energy>
  </scstep>
  <scstep>
   <time name="total">    1.16    0.69</time>
   <energy>
    <i name="e_fr_energy">     -0.48481056 </i>
    <i name="e_wo_entrp">     -0.48481056 </i>
    <i name="e_0_energy">     -0.48481056 </i>
   </energy>
  </scstep>
  <scstep>
   <time name="total">    1.15    0.68</time>
   <energy>
    <i name="e_fr_energy">     -0.48481056 </i>
    <i name="e_wo_entrp">     -0.48481056 </i>
    <i name="e_0_energy">     -0.48481056 </i>
   </energy>
  </scstep>
  <scstep>
   <time name="total">    1.15    0.68</time>
   <energy>
    <i name="e_fr_energy">     -0.48481056 </i>
    <i name="e_wo_entrp">     -0.48481056 </i>
    <i name="e_0_energy">     -0.48481056 </i>
   </energy>
  </scstep>
  <scstep>
   <time name="total">    1.24    0.77</time>
   <energy>
    <i name="e_fr_energy">     -0.48392852 </i>
    <i name="e_wo_entrp">     -0.48392852 </i>
    <i name="e_0_energy">     -0.48392852 </i>
   </energy>
  </scstep>
  <scstep>
   <time name="total">    1.24    0.77</time>
   <energy>
    <i name="e_fr_energy">     -0.48612849 </i>
    <i name="e_wo_entrp">     -0.48612849 </i>
    <i name="e_0_energy">     -0.48612849 </i>
   </energy>
  </scstep>
  <scstep>
   <time name="total">    1.23    0.77</time>
   <energy>
    <i name="e_fr_energy">     -0.48632079 </i>
    <i name="e_wo_entrp">     -0.48632079 </i>
    <i name="e_0_energy">     -0.48632079 </i>
   </energy>
  </scstep>
  <scstep>
   <time name="total">    1.23    0.77</time>
   <energy>
    <i name="e_fr_energy">     -0.48632954 </i>
    <i name="e_wo_entrp">     -0.48632954 </i>
    <i name="e_0_energy">     -0.48632954 </i>
   </energy>
  </scstep>
  <scstep>
   <time name="total">    1.23    0.77</time>
   <energy>
    <i name="e_fr_energy">     -0.48632985 </i>
    <i name="e_wo_entrp">     -0.48632985 </i>
    <i name="e_0_energy">     -0.48632985 </i>
   </energy>
  </scstep>
  <scstep>
   <time name="total">    1.19    0.73</time>
   <energy>
    <i name="e_fr_energy">     -0.48632987 </i>
    <i name="e_wo_entrp">     -0.48632987 </i>
    <i name="e_0_energy">     -0.48632987 </i>
   </energy>
  </scstep>
  <scstep>
   <time name="total">    1.15    0.69</time>
   <energy>
    <i name="e_fr_energy">     -0.48632987 </i>
    <i name="e_wo_entrp">     -0.48632987 </i>
    <i name="e_0_energy">     -0.48632987 </i>
   </energy>
  </scstep>
  <scstep>
   <time name="total">    1.14    0.68</time>
   <energy>
    <i name="e_fr_energy">     -0.48632987 </i>
    <i name="e_wo_entrp">     -0.48632987 </i>
    <i name="e_0_energy">     -0.48632987 </i>
   </energy>
  </scstep>
  <scstep>
   <time name="total">    1.13    0.67</time>
   <energy>
    <i name="e_fr_energy">     -0.48632987 </i>
    <i name="e_wo_entrp">     -0.48632987 </i>
    <i name="e_0_energy">     -0.48632987 </i>
   </energy>
  </scstep>
  <scstep>
   <time name="total">    1.13    0.67</time>
   <energy>
    <i name="e_fr_energy">     -0.48632987 </i>
    <i name="e_wo_entrp">     -0.48632987 </i>
    <i name="e_0_energy">     -0.48632987 </i>
   </energy>
  </scstep>
  <scstep>
   <time name="total">    1.22    0.76</time>
   <energy>
    <i name="e_fr_energy">     -0.48761300 </i>
    <i name="e_wo_entrp">     -0.48761300 </i>
    <i name="e_0_energy">     -0.48761300 </i>
   </energy>
  </scstep>
  <scstep>
   <time name="total">    1.22    0.76</time>
   <energy>
    <i name="e_fr_energy">     -0.48965714 </i>
    <i name="e_wo_entrp">     -0.48965714 </i>
    <i name="e_0_energy">     -0.48965714 </i>
   </energy>
  </scstep>
  <scstep>
   <time name="total">    1.23    0.76</time>
   <energy>
    <i name="e_fr_energy">     -0.48984816 </i>
    <i name="e_wo_entrp">     -0.48984816 </i>
    <i name="e_0_energy">     -0.48984816 </i>
   </energy>
  </scstep>
  <scstep>
   <time name="total">    1.24    0.77</time>
   <energy>
    <i name="e_fr_energy">     -0.48985708 </i>
    <i name="e_wo_entrp">     -0.48985708 </i>
    <i name="e_0_energy">     -0.48985708 </i>
   </energy>
  </scstep>
  <scstep>
   <time name="total">    1.24    0.77</time>
   <energy>
    <i name="e_fr_energy">     -0.48985739 </i>
    <i name="e_wo_entrp">     -0.48985739 </i>
    <i name="e_0_energy">     -0.48985739 </i>
   </energy>
  </scstep>
  <scstep>
   <time name="total">    1.21    0.74</time>
   <energy>
    <i name="e_fr_energy">     -0.48985741 </i>
    <i name="e_wo_entrp">     -0.48985741 </i>
    <i name="e_0_energy">     -0.48985741 </i>
   </energy>
  </scstep>
  <scstep>
   <time name="total">    1.16    0.69</time>
   <energy>
    <i name="e_fr_energy">     -0.48985741 </i>
    <i name="e_wo_entrp">     -0.48985741 </i>
    <i name="e_0_energy">     -0.48985741 </i>
   </energy>
  </scstep>
  <varray name="dielectric_ipa" >
   <v>       2.58976798      -0.00000001      -0.00000000 </v>
   <v>       0.00000001       2.58976798       0.00000000 </v>
   <v>       0.00000000       0.00000000       2.60380743 </v>
  </varray>
  <kpoints>
   <generation param="Gamma">
    <v type="int" name="divisions">       4        4        4 </v>
    <v name="usershift">      0.00000000       0.00000000       0.00000000 </v>
    <v name="genvec1">      0.25000000       0.00000000       0.00000000 </v>
    <v name="genvec2">      0.00000000       0.25000000       0.00000000 </v>
    <v name="genvec3">      0.00000000       0.00000000       0.25000000 </v>
    <v name="shift">      0.00000000       0.00000000       0.00000000 </v>
   </generation>
   <varray name="kpointlist" >
    <v>       0.00000000       0.00000000       0.00000000 </v>
    <v>       0.25000000       0.00000000       0.00000000 </v>
    <v>       0.00000000       0.25000000       0.00000000 </v>
    <v>      -0.25000000       0.25000000       0.00000000 </v>
    <v>       0.50000000       0.00000000       0.00000000 </v>
    <v>       0.00000000       0.50000000       0.00000000 </v>
    <v>       0.50000000       0.50000000       0.00000000 </v>
    <v>       0.25000000       0.25000000       0.00000000 </v>
    <v>      -0.25000000       0.50000000       0.00000000 </v>
    <v>       0.50000000       0.25000000       0.00000000 </v>
    <v>       0.00000000       0.00000000       0.25000000 </v>
    <v>       0.25000000       0.00000000       0.25000000 </v>
    <v>       0.00000000       0.25000000       0.25000000 </v>
    <v>      -0.25000000       0.25000000       0.25000000 </v>
    <v>      -0.25000000       0.00000000       0.25000000 </v>
    <v>       0.00000000      -0.25000000       0.25000000 </v>
    <v>       0.25000000      -0.25000000       0.25000000 </v>
    <v>       0.50000000       0.00000000       0.25000000 </v>
    <v>       0.00000000       0.50000000       0.25000000 </v>
    <v>       0.50000000       0.50000000       0.25000000 </v>
    <v>       0.25000000       0.25000000       0.25000000 </v>
    <v>      -0.25000000       0.50000000       0.25000000 </v>
    <v>       0.50000000       0.25000000       0.25000000 </v>
    <v>      -0.25000000      -0.25000000       0.25000000 </v>
    <v>       0.25000000       0.50000000       0.25000000 </v>
    <v>       0.50000000      -0.25000000       0.25000000 </v>
    <v>       0.00000000       0.00000000       0.50000000 </v>
    <v>       0.25000000       0.00000000       0.50000000 </v>
    <v>       0.00000000       0.25000000       0.50000000 </v>
    <v>      -0.25000000       0.25000000       0.50000000 </v>
    <v>       0.50000000       0.00000000       0.50000000 </v>
    <v>       0.00000000       0.50000000       0.50000000 </v>
    <v>       0.50000000       0.50000000       0.50000000 </v>
    <v>       0.25000000       0.25000000       0.50000000 </v>
    <v>      -0.25000000       0.50000000       0.50000000 </v>
    <v>       0.50000000       0.25000000       0.50000000 </v>
   </varray>
   <varray name="weights" >
    <v>       0.01562500 </v>
    <v>       0.03125000 </v>
    <v>       0.03125000 </v>
    <v>       0.03125000 </v>
    <v>       0.01562500 </v>
    <v>       0.01562500 </v>
    <v>       0.01562500 </v>
    <v>       0.03125000 </v>
    <v>       0.03125000 </v>
    <v>       0.03125000 </v>
    <v>       0.03125000 </v>
    <v>       0.03125000 </v>
    <v>       0.03125000 </v>
    <v>       0.03125000 </v>
    <v>       0.03125000 </v>
    <v>       0.03125000 </v>
    <v>       0.03125000 </v>
    <v>       0.03125000 </v>
    <v>       0.03125000 </v>
    <v>       0.03125000 </v>
    <v>       0.03125000 </v>
    <v>       0.03125000 </v>
    <v>       0.03125000 </v>
    <v>       0.03125000 </v>
    <v>       0.03125000 </v>
    <v>       0.03125000 </v>
    <v>       0.01562500 </v>
    <v>       0.03125000 </v>
    <v>       0.03125000 </v>
    <v>       0.03125000 </v>
    <v>       0.01562500 </v>
    <v>       0.01562500 </v>
    <v>       0.01562500 </v>
    <v>       0.03125000 </v>
    <v>       0.03125000 </v>
    <v>       0.03125000 </v>
   </varray>
  </kpoints>
  <scstep>
   <time name="total">    2.26    1.79</time>
   <energy>
    <i name="e_fr_energy">     -0.48312633 </i>
    <i name="e_wo_entrp">     -0.48312633 </i>
    <i name="e_0_energy">     -0.48312633 </i>
   </energy>
  </scstep>
  <scstep>
   <time name="total">    2.33    1.85</time>
   <energy>
    <i name="e_fr_energy">     -0.48537420 </i>
    <i name="e_wo_entrp">     -0.48537420 </i>
    <i name="e_0_energy">     -0.48537420 </i>
   </energy>
  </scstep>
  <scstep>
   <time name="total">    2.32    1.84</time>
   <energy>
    <i name="e_fr_energy">     -0.46520288 </i>
    <i name="e_wo_entrp">     -0.46520288 </i>
    <i name="e_0_energy">     -0.46520288 </i>
   </energy>
  </scstep>
  <scstep>
   <time name="total">    2.33    1.85</time>
   <energy>
    <i name="e_fr_energy">     -0.47601226 </i>
    <i name="e_wo_entrp">     -0.47601226 </i>
    <i name="e_0_energy">     -0.47601226 </i>
   </energy>
  </scstep>
  <scstep>
   <time name="total">    2.32    1.84</time>
   <energy>
    <i name="e_fr_energy">     -0.49377004 </i>
    <i name="e_wo_entrp">     -0.49377004 </i>
    <i name="e_0_energy">     -0.49377004 </i>
   </energy>
  </scstep>
  <scstep>
   <time name="total">    2.29    1.81</time>
   <energy>
    <i name="e_fr_energy">     -0.49670105 </i>
    <i name="e_wo_entrp">     -0.49670105 </i>
    <i name="e_0_energy">     -0.49670105 </i>
   </energy>
  </scstep>
  <scstep>
   <time name="total">    2.33    1.86</time>
   <energy>
    <i name="e_fr_energy">     -0.49693728 </i>
    <i name="e_wo_entrp">     -0.49693728 </i>
    <i name="e_0_energy">     -0.49693728 </i>
   </energy>
  </scstep>
  <scstep>
   <time name="total">    2.32    1.85</time>
   <energy>
    <i name="e_fr_energy">     -0.49716988 </i>
    <i name="e_wo_entrp">     -0.49716988 </i>
    <i name="e_0_energy">     -0.49716988 </i>
   </energy>
  </scstep>
  <scstep>
   <time name="total">    2.33    1.85</time>
   <energy>
    <i name="e_fr_energy">     -0.49723376 </i>
    <i name="e_wo_entrp">     -0.49723376 </i>
    <i name="e_0_energy">     -0.49723376 </i>
   </energy>
  </scstep>
  <scstep>
   <time name="total">    2.33    1.85</time>
   <energy>
    <i name="e_fr_energy">     -0.49722887 </i>
    <i name="e_wo_entrp">     -0.49722887 </i>
    <i name="e_0_energy">     -0.49722887 </i>
   </energy>
  </scstep>
  <scstep>
   <time name="total">    2.32    1.83</time>
   <energy>
    <i name="e_fr_energy">     -0.49722984 </i>
    <i name="e_wo_entrp">     -0.49722984 </i>
    <i name="e_0_energy">     -0.49722984 </i>
   </energy>
  </scstep>
  <scstep>
   <time name="total">    2.25    1.77</time>
   <energy>
    <i name="e_fr_energy">     -0.49722985 </i>
    <i name="e_wo_entrp">     -0.49722985 </i>
    <i name="e_0_energy">     -0.49722985 </i>
   </energy>
  </scstep>
  <scstep>
   <time name="total">    2.24    1.76</time>
   <energy>
    <i name="e_fr_energy">     -0.49722983 </i>
    <i name="e_wo_entrp">     -0.49722983 </i>
    <i name="e_0_energy">     -0.49722983 </i>
   </energy>
  </scstep>
  <scstep>
   <time name="total">    2.26    1.78</time>
   <energy>
    <i name="e_fr_energy">     -0.49722980 </i>
    <i name="e_wo_entrp">     -0.49722980 </i>
    <i name="e_0_energy">     -0.49722980 </i>
   </energy>
  </scstep>
  <kpoints>
   <generation param="Gamma">
    <v type="int" name="divisions">       4        4        4 </v>
    <v name="usershift">      0.00000000       0.00000000       0.00000000 </v>
    <v name="genvec1">      0.25000000       0.00000000       0.00000000 </v>
    <v name="genvec2">      0.00000000       0.25000000       0.00000000 </v>
    <v name="genvec3">      0.00000000       0.00000000       0.25000000 </v>
    <v name="shift">      0.00000000       0.00000000       0.00000000 </v>
   </generation>
   <varray name="kpointlist" >
    <v>       0.00000000       0.00000000       0.00000000 </v>
    <v>       0.25000000       0.00000000       0.00000000 </v>
    <v>       0.00000000       0.25000000       0.00000000 </v>
    <v>      -0.25000000       0.25000000       0.00000000 </v>
    <v>       0.50000000       0.00000000       0.00000000 </v>
    <v>       0.00000000       0.50000000       0.00000000 </v>
    <v>       0.50000000       0.50000000       0.00000000 </v>
    <v>       0.25000000       0.25000000       0.00000000 </v>
    <v>      -0.25000000       0.50000000       0.00000000 </v>
    <v>       0.50000000       0.25000000       0.00000000 </v>
    <v>       0.00000000       0.00000000       0.25000000 </v>
    <v>       0.25000000       0.00000000       0.25000000 </v>
    <v>       0.00000000       0.25000000       0.25000000 </v>
    <v>      -0.25000000       0.25000000       0.25000000 </v>
    <v>      -0.25000000       0.00000000       0.25000000 </v>
    <v>       0.00000000      -0.25000000       0.25000000 </v>
    <v>       0.25000000      -0.25000000       0.25000000 </v>
    <v>       0.50000000       0.00000000       0.25000000 </v>
    <v>       0.00000000       0.50000000       0.25000000 </v>
    <v>       0.50000000       0.50000000       0.25000000 </v>
    <v>       0.25000000       0.25000000       0.25000000 </v>
    <v>      -0.25000000       0.50000000       0.25000000 </v>
    <v>       0.50000000       0.25000000       0.25000000 </v>
    <v>      -0.25000000      -0.25000000       0.25000000 </v>
    <v>       0.25000000       0.50000000       0.25000000 </v>
    <v>       0.50000000      -0.25000000       0.25000000 </v>
    <v>       0.00000000       0.00000000       0.50000000 </v>
    <v>       0.25000000       0.00000000       0.50000000 </v>
    <v>       0.00000000       0.25000000       0.50000000 </v>
    <v>      -0.25000000       0.25000000       0.50000000 </v>
    <v>       0.50000000       0.00000000       0.50000000 </v>
    <v>       0.00000000       0.50000000       0.50000000 </v>
    <v>       0.50000000       0.50000000       0.50000000 </v>
    <v>       0.25000000       0.25000000       0.50000000 </v>
    <v>      -0.25000000       0.50000000       0.50000000 </v>
    <v>       0.50000000       0.25000000       0.50000000 </v>
   </varray>
   <varray name="weights" >
    <v>       0.01562500 </v>
    <v>       0.03125000 </v>
    <v>       0.03125000 </v>
    <v>       0.03125000 </v>
    <v>       0.01562500 </v>
    <v>       0.01562500 </v>
    <v>       0.01562500 </v>
    <v>       0.03125000 </v>
    <v>       0.03125000 </v>
    <v>       0.03125000 </v>
    <v>       0.03125000 </v>
    <v>       0.03125000 </v>
    <v>       0.03125000 </v>
    <v>       0.03125000 </v>
    <v>       0.03125000 </v>
    <v>       0.03125000 </v>
    <v>       0.03125000 </v>
    <v>       0.03125000 </v>
    <v>       0.03125000 </v>
    <v>       0.03125000 </v>
    <v>       0.03125000 </v>
    <v>       0.03125000 </v>
    <v>       0.03125000 </v>
    <v>       0.03125000 </v>
    <v>       0.03125000 </v>
    <v>       0.03125000 </v>
    <v>       0.01562500 </v>
    <v>       0.03125000 </v>
    <v>       0.03125000 </v>
    <v>       0.03125000 </v>
    <v>       0.01562500 </v>
    <v>       0.01562500 </v>
    <v>       0.01562500 </v>
    <v>       0.03125000 </v>
    <v>       0.03125000 </v>
    <v>       0.03125000 </v>
   </varray>
  </kpoints>
  <scstep>
   <time name="total">    2.23    1.76</time>
   <energy>
    <i name="e_fr_energy">     -0.48316772 </i>
    <i name="e_wo_entrp">     -0.48316772 </i>
    <i name="e_0_energy">     -0.48316772 </i>
   </energy>
  </scstep>
  <scstep>
   <time name="total">    2.30    1.83</time>
   <energy>
    <i name="e_fr_energy">     -0.48537252 </i>
    <i name="e_wo_entrp">     -0.48537252 </i>
    <i name="e_0_energy">     -0.48537252 </i>
   </energy>
  </scstep>
  <scstep>
   <time name="total">    2.31    1.84</time>
   <energy>
    <i name="e_fr_energy">     -0.46519577 </i>
    <i name="e_wo_entrp">     -0.46519577 </i>
    <i name="e_0_energy">     -0.46519577 </i>
   </energy>
  </scstep>
  <scstep>
   <time name="total">    2.33    1.85</time>
   <energy>
    <i name="e_fr_energy">     -0.47603322 </i>
    <i name="e_wo_entrp">     -0.47603322 </i>
    <i name="e_0_energy">     -0.47603322 </i>
   </energy>
  </scstep>
  <scstep>
   <time name="total">    2.31    1.83</time>
   <energy>
    <i name="e_fr_energy">     -0.49376927 </i>
    <i name="e_wo_entrp">     -0.49376927 </i>
    <i name="e_0_energy">     -0.49376927 </i>
   </energy>
  </scstep>
  <scstep>
   <time name="total">    2.29    1.81</time>
   <energy>
    <i name="e_fr_energy">     -0.49669138 </i>
    <i name="e_wo_entrp">     -0.49669138 </i>
    <i name="e_0_energy">     -0.49669138 </i>
   </energy>
  </scstep>
  <scstep>
   <time name="total">    2.56    1.89</time>
   <energy>
    <i name="e_fr_energy">     -0.49693559 </i>
    <i name="e_wo_entrp">     -0.49693559 </i>
    <i name="e_0_energy">     -0.49693559 </i>
   </energy>
  </scstep>
  <scstep>
   <time name="total">    2.32    1.85</time>
   <energy>
    <i name="e_fr_energy">     -0.49716600 </i>
    <i name="e_wo_entrp">     -0.49716600 </i>
    <i name="e_0_energy">     -0.49716600 </i>
   </energy>
  </scstep>
  <scstep>
   <time name="total">    2.33    1.85</time>
   <energy>
    <i name="e_fr_energy">     -0.49723160 </i>
    <i name="e_wo_entrp">     -0.49723160 </i>
    <i name="e_0_energy">     -0.49723160 </i>
   </energy>
  </scstep>
  <scstep>
   <time name="total">    2.33    1.85</time>
   <energy>
    <i name="e_fr_energy">     -0.49722660 </i>
    <i name="e_wo_entrp">     -0.49722660 </i>
    <i name="e_0_energy">     -0.49722660 </i>
   </energy>
  </scstep>
  <scstep>
   <time name="total">    2.31    1.83</time>
   <energy>
    <i name="e_fr_energy">     -0.49722768 </i>
    <i name="e_wo_entrp">     -0.49722768 </i>
    <i name="e_0_energy">     -0.49722768 </i>
   </energy>
  </scstep>
  <scstep>
   <time name="total">    2.25    1.77</time>
   <energy>
    <i name="e_fr_energy">     -0.49722773 </i>
    <i name="e_wo_entrp">     -0.49722773 </i>
    <i name="e_0_energy">     -0.49722773 </i>
   </energy>
  </scstep>
  <scstep>
   <time name="total">    2.24    1.75</time>
   <energy>
    <i name="e_fr_energy">     -0.49722772 </i>
    <i name="e_wo_entrp">     -0.49722772 </i>
    <i name="e_0_energy">     -0.49722772 </i>
   </energy>
  </scstep>
  <scstep>
   <time name="total">    2.26    1.78</time>
   <energy>
    <i name="e_fr_energy">     -0.49722769 </i>
    <i name="e_wo_entrp">     -0.49722769 </i>
    <i name="e_0_energy">     -0.49722769 </i>
   </energy>
  </scstep>
  <kpoints>
   <generation param="Gamma">
    <v type="int" name="divisions">       4        4        4 </v>
    <v name="usershift">      0.00000000       0.00000000       0.00000000 </v>
    <v name="genvec1">      0.25000000       0.00000000       0.00000000 </v>
    <v name="genvec2">      0.00000000       0.25000000       0.00000000 </v>
    <v name="genvec3">      0.00000000       0.00000000       0.25000000 </v>
    <v name="shift">      0.00000000       0.00000000       0.00000000 </v>
   </generation>
   <varray name="kpointlist" >
    <v>       0.00000000       0.00000000       0.00000000 </v>
    <v>       0.25000000       0.00000000       0.00000000 </v>
    <v>       0.50000000       0.00000000       0.00000000 </v>
    <v>       0.25000000       0.25000000       0.00000000 </v>
    <v>       0.00000000       0.00000000       0.25000000 </v>
    <v>       0.25000000       0.00000000       0.25000000 </v>
    <v>       0.00000000       0.25000000       0.25000000 </v>
    <v>       0.50000000       0.00000000       0.25000000 </v>
    <v>       0.25000000       0.25000000       0.25000000 </v>
    <v>      -0.25000000       0.50000000       0.25000000 </v>
    <v>       0.00000000       0.00000000       0.50000000 </v>
    <v>       0.25000000       0.00000000       0.50000000 </v>
    <v>       0.50000000       0.00000000       0.50000000 </v>
    <v>       0.25000000       0.25000000       0.50000000 </v>
   </varray>
   <varray name="weights" >
    <v>       0.01562500 </v>
    <v>       0.09375000 </v>
    <v>       0.04687500 </v>
    <v>       0.09375000 </v>
    <v>       0.03125000 </v>
    <v>       0.09375000 </v>
    <v>       0.09375000 </v>
    <v>       0.09375000 </v>
    <v>       0.09375000 </v>
    <v>       0.09375000 </v>
    <v>       0.01562500 </v>
    <v>       0.09375000 </v>
    <v>       0.04687500 </v>
    <v>       0.09375000 </v>
   </varray>
  </kpoints>
  <scstep>
   <time name="total">    1.23    0.76</time>
   <energy>
    <i name="e_fr_energy">     -0.48761300 </i>
    <i name="e_wo_entrp">     -0.48761300 </i>
    <i name="e_0_energy">     -0.48761300 </i>
   </energy>
  </scstep>
  <scstep>
   <time name="total">    1.27    0.79</time>
   <energy>
    <i name="e_fr_energy">     -0.48965714 </i>
    <i name="e_wo_entrp">     -0.48965714 </i>
    <i name="e_0_energy">     -0.48965714 </i>
   </energy>
  </scstep>
  <scstep>
   <time name="total">    1.27    0.78</time>
   <energy>
    <i name="e_fr_energy">     -0.47442646 </i>
    <i name="e_wo_entrp">     -0.47442646 </i>
    <i name="e_0_energy">     -0.47442646 </i>
   </energy>
  </scstep>
  <scstep>
   <time name="total">    1.27    0.79</time>
   <energy>
    <i name="e_fr_energy">     -0.48763042 </i>
    <i name="e_wo_entrp">     -0.48763042 </i>
    <i name="e_0_energy">     -0.48763042 </i>
   </energy>
  </scstep>
  <scstep>
   <time name="total">    1.27    0.79</time>
   <energy>
    <i name="e_fr_energy">     -0.50387419 </i>
    <i name="e_wo_entrp">     -0.50387419 </i>
    <i name="e_0_energy">     -0.50387419 </i>
   </energy>
  </scstep>
  <scstep>
   <time name="total">    1.31    0.83</time>
   <energy>
    <i name="e_fr_energy">     -0.50671357 </i>
    <i name="e_wo_entrp">     -0.50671357 </i>
    <i name="e_0_energy">     -0.50671357 </i>
   </energy>
  </scstep>
  <scstep>
   <time name="total">    1.28    0.79</time>
   <energy>
    <i name="e_fr_energy">     -0.50695676 </i>
    <i name="e_wo_entrp">     -0.50695676 </i>
    <i name="e_0_energy">     -0.50695676 </i>
   </energy>
  </scstep>
  <scstep>
   <time name="total">    1.27    0.79</time>
   <energy>
    <i name="e_fr_energy">     -0.50722262 </i>
    <i name="e_wo_entrp">     -0.50722262 </i>
    <i name="e_0_energy">     -0.50722262 </i>
   </energy>
  </scstep>
  <scstep>
   <time name="total">    1.28    0.80</time>
   <energy>
    <i name="e_fr_energy">     -0.50724541 </i>
    <i name="e_wo_entrp">     -0.50724541 </i>
    <i name="e_0_energy">     -0.50724541 </i>
   </energy>
  </scstep>
  <scstep>
   <time name="total">    1.28    0.80</time>
   <energy>
    <i name="e_fr_energy">     -0.50724656 </i>
    <i name="e_wo_entrp">     -0.50724656 </i>
    <i name="e_0_energy">     -0.50724656 </i>
   </energy>
  </scstep>
  <scstep>
   <time name="total">    1.29    0.80</time>
   <energy>
    <i name="e_fr_energy">     -0.50724565 </i>
    <i name="e_wo_entrp">     -0.50724565 </i>
    <i name="e_0_energy">     -0.50724565 </i>
   </energy>
  </scstep>
  <scstep>
   <time name="total">    1.24    0.75</time>
   <energy>
    <i name="e_fr_energy">     -0.50724590 </i>
    <i name="e_wo_entrp">     -0.50724590 </i>
    <i name="e_0_energy">     -0.50724590 </i>
   </energy>
  </scstep>
  <scstep>
   <time name="total">    1.26    0.78</time>
   <energy>
    <i name="e_fr_energy">     -0.50724586 </i>
    <i name="e_wo_entrp">     -0.50724586 </i>
    <i name="e_0_energy">     -0.50724586 </i>
   </energy>
  </scstep>
  <scstep>
   <time name="total">    1.23    0.74</time>
   <energy>
    <i name="e_fr_energy">     -0.50724588 </i>
    <i name="e_wo_entrp">     -0.50724588 </i>
    <i name="e_0_energy">     -0.50724588 </i>
   </energy>
  </scstep>
  <kpoints>
   <generation param="Gamma">
    <v type="int" name="divisions">       4        4        4 </v>
    <v name="usershift">      0.00000000       0.00000000       0.00000000 </v>
    <v name="genvec1">      0.25000000       0.00000000       0.00000000 </v>
    <v name="genvec2">      0.00000000       0.25000000       0.00000000 </v>
    <v name="genvec3">      0.00000000       0.00000000       0.25000000 </v>
    <v name="shift">      0.00000000       0.00000000       0.00000000 </v>
   </generation>
   <varray name="kpointlist" >
    <v>       0.00000000       0.00000000       0.00000000 </v>
    <v>       0.25000000       0.00000000       0.00000000 </v>
    <v>       0.50000000       0.00000000       0.00000000 </v>
    <v>       0.25000000       0.25000000       0.00000000 </v>
    <v>       0.00000000       0.00000000       0.25000000 </v>
    <v>       0.25000000       0.00000000       0.25000000 </v>
    <v>       0.00000000       0.25000000       0.25000000 </v>
    <v>       0.50000000       0.00000000       0.25000000 </v>
    <v>       0.25000000       0.25000000       0.25000000 </v>
    <v>      -0.25000000       0.50000000       0.25000000 </v>
    <v>       0.00000000       0.00000000       0.50000000 </v>
    <v>       0.25000000       0.00000000       0.50000000 </v>
    <v>       0.50000000       0.00000000       0.50000000 </v>
    <v>       0.25000000       0.25000000       0.50000000 </v>
   </varray>
   <varray name="weights" >
    <v>       0.01562500 </v>
    <v>       0.09375000 </v>
    <v>       0.04687500 </v>
    <v>       0.09375000 </v>
    <v>       0.03125000 </v>
    <v>       0.09375000 </v>
    <v>       0.09375000 </v>
    <v>       0.09375000 </v>
    <v>       0.09375000 </v>
    <v>       0.09375000 </v>
    <v>       0.01562500 </v>
    <v>       0.09375000 </v>
    <v>       0.04687500 </v>
    <v>       0.09375000 </v>
   </varray>
  </kpoints>
  <varray name="dielectric_dft" >
   <v>       2.48082814      -0.00000035       0.00000000 </v>
   <v>       0.00000035       2.48082814       0.00000000 </v>
   <v>       0.00000000       0.00000000       2.51334656 </v>
  </varray>
  <varray name="epsilon" >
   <v>       2.48082814      -0.00000035       0.00000000 </v>
   <v>       0.00000035       2.48082814       0.00000000 </v>
   <v>       0.00000000       0.00000000       2.51334656 </v>
  </varray>
  <kpoints>
   <generation param="Gamma">
    <v type="int" name="divisions">       4        4        4 </v>
    <v name="usershift">      0.00000000       0.00000000       0.00000000 </v>
    <v name="genvec1">      0.25000000       0.00000000       0.00000000 </v>
    <v name="genvec2">      0.00000000       0.25000000       0.00000000 </v>
    <v name="genvec3">      0.00000000       0.00000000       0.25000000 </v>
    <v name="shift">      0.00000000       0.00000000       0.00000000 </v>
   </generation>
   <varray name="kpointlist" >
    <v>       0.00000000       0.00000000       0.00000000 </v>
    <v>       0.25000000       0.00000000       0.00000000 </v>
    <v>       0.50000000       0.00000000       0.00000000 </v>
    <v>       0.25000000       0.25000000       0.00000000 </v>
    <v>       0.00000000       0.00000000       0.25000000 </v>
    <v>       0.25000000       0.00000000       0.25000000 </v>
    <v>       0.00000000       0.25000000       0.25000000 </v>
    <v>       0.50000000       0.00000000       0.25000000 </v>
    <v>       0.25000000       0.25000000       0.25000000 </v>
    <v>      -0.25000000       0.50000000       0.25000000 </v>
    <v>       0.00000000       0.00000000       0.50000000 </v>
    <v>       0.25000000       0.00000000       0.50000000 </v>
    <v>       0.50000000       0.00000000       0.50000000 </v>
    <v>       0.25000000       0.25000000       0.50000000 </v>
   </varray>
   <varray name="weights" >
    <v>       0.01562500 </v>
    <v>       0.09375000 </v>
    <v>       0.04687500 </v>
    <v>       0.09375000 </v>
    <v>       0.03125000 </v>
    <v>       0.09375000 </v>
    <v>       0.09375000 </v>
    <v>       0.09375000 </v>
    <v>       0.09375000 </v>
    <v>       0.09375000 </v>
    <v>       0.01562500 </v>
    <v>       0.09375000 </v>
    <v>       0.04687500 </v>
    <v>       0.09375000 </v>
   </varray>
  </kpoints>
  <array name="born_charges" >
   <dimension dim="1">ion</dimension>
   <set>
    <v>       2.98053657      -0.00019213      -0.00058477 </v>
    <v>      -0.00031357       3.62048718      -0.32134554 </v>
    <v>       0.00021386       0.27803155       3.42535436 </v>
   </set>
   <set>
    <v>       3.46028055       0.27729389       0.27858579 </v>
    <v>       0.27717245       3.14074320       0.16016635 </v>
    <v>      -0.24088932      -0.13883057       3.42535436 </v>
   </set>
   <set>
    <v>       3.46071851      -0.27691960      -0.27800102 </v>
    <v>      -0.27704104       3.14030524       0.16117920 </v>
    <v>       0.24067546      -0.13920098       3.42535436 </v>
   </set>
   <set>
    <v>      -1.31079174      -0.49292577      -0.31002017 </v>
    <v>      -0.43560043      -1.98816571      -0.67856436 </v>
    <v>      -0.24312114      -0.72074193      -1.71234159 </v>
   </set>
   <set>
    <v>      -2.22088585      -0.08984265       0.74266405 </v>
    <v>      -0.03251731      -1.07807159       0.07079684 </v>
    <v>       0.74574139       0.14982188      -1.71234159 </v>
   </set>
   <set>
    <v>      -1.41675858       0.49678041      -0.43264389 </v>
    <v>       0.55410575      -1.88219887       0.60776752 </v>
    <v>      -0.50262025       0.57092005      -1.71234159 </v>
   </set>
   <set>
    <v>      -1.31148871       0.49377198       0.31042067 </v>
    <v>       0.43656808      -1.99057759      -0.67949128 </v>
    <v>       0.24376505      -0.72217861      -1.71301278 </v>
   </set>
   <set>
    <v>      -2.22365443       0.09007104      -0.74366705 </v>
    <v>       0.03286715      -1.07841187       0.07091346 </v>
    <v>      -0.74730754       0.14998258      -1.71301278 </v>
   </set>
   <set>
    <v>      -1.41795631      -0.49803718       0.43324638 </v>
    <v>      -0.55524107      -1.88410999       0.60857783 </v>
    <v>       0.50354250       0.57219602      -1.71301278 </v>
   </set>
  </array>
  <time name="totalsc">  224.85  133.15</time>
  <eigenvalues>
   <array>
    <dimension dim="1">band</dimension>
    <dimension dim="2">kpoint</dimension>
    <dimension dim="3">spin</dimension>
    <field>eigene</field>
    <field>occ</field>
    <set>
     <set comment="spin 1">
      <set comment="kpoint 1">
       <r>  -18.1719    1.0000 </r>
       <r>  -16.6201    1.0000 </r>
       <r>  -16.6201    1.0000 </r>
       <r>  -15.9516    1.0000 </r>
       <r>  -15.9423    1.0000 </r>
       <r>  -15.9423    1.0000 </r>
       <r>   -6.8789    1.0000 </r>
       <r>   -6.8789    1.0000 </r>
       <r>   -4.1465    1.0000 </r>
       <r>   -4.0639    1.0000 </r>
       <r>   -3.9112    1.0000 </r>
       <r>   -3.9112    1.0000 </r>
       <r>   -1.6856    1.0000 </r>
       <r>   -1.6856    1.0000 </r>
       <r>   -1.3748    1.0000 </r>
       <r>   -1.1506    1.0000 </r>
       <r>   -0.1554    1.0000 </r>
       <r>   -0.1554    1.0000 </r>
       <r>   -0.0980    1.0000 </r>
       <r>    0.2613    1.0000 </r>
       <r>    0.2613    1.0000 </r>
       <r>    0.4586    1.0000 </r>
       <r>    1.0042    1.0000 </r>
       <r>    1.0042    1.0000 </r>
       <r>    7.3235    0.0000 </r>
       <r>   10.6085    0.0000 </r>
       <r>   10.6085    0.0000 </r>
       <r>   11.2366    0.0000 </r>
       <r>   11.2366    0.0000 </r>
      </set>
      <set comment="kpoint 2">
       <r>  -17.9879    1.0000 </r>
       <r>  -16.8197    1.0000 </r>
       <r>  -16.5937    1.0000 </r>
       <r>  -16.0188    1.0000 </r>
       <r>  -15.9757    1.0000 </r>
       <r>  -15.9422    1.0000 </r>
       <r>   -6.9569    1.0000 </r>
       <r>   -6.5092    1.0000 </r>
       <r>   -4.2176    1.0000 </r>
       <r>   -4.1542    1.0000 </r>
       <r>   -4.0326    1.0000 </r>
       <r>   -3.6189    1.0000 </r>
       <r>   -1.8729    1.0000 </r>
       <r>   -1.5567    1.0000 </r>
       <r>   -1.3477    1.0000 </r>
       <r>   -0.8969    1.0000 </r>
       <r>   -0.6972    1.0000 </r>
       <r>   -0.2391    1.0000 </r>
       <r>   -0.1600    1.0000 </r>
       <r>    0.1793    1.0000 </r>
       <r>    0.2769    1.0000 </r>
       <r>    0.4210    1.0000 </r>
       <r>    1.0536    1.0000 </r>
       <r>    1.1416    1.0000 </r>
       <r>    8.2330    0.0000 </r>
       <r>   10.6696    0.0000 </r>
       <r>   10.7200    0.0000 </r>
       <r>   11.2073    0.0000 </r>
       <r>   11.4827    0.0000 </r>
      </set>
      <set comment="kpoint 3">
       <r>  -17.6650    1.0000 </r>
       <r>  -17.1820    1.0000 </r>
       <r>  -16.5648    1.0000 </r>
       <r>  -16.0451    1.0000 </r>
       <r>  -16.0007    1.0000 </r>
       <r>  -15.9680    1.0000 </r>
       <r>   -7.0305    1.0000 </r>
       <r>   -6.0439    1.0000 </r>
       <r>   -4.5561    1.0000 </r>
       <r>   -4.0960    1.0000 </r>
       <r>   -4.0893    1.0000 </r>
       <r>   -3.2818    1.0000 </r>
       <r>   -1.8238    1.0000 </r>
       <r>   -1.6227    1.0000 </r>
       <r>   -1.4348    1.0000 </r>
       <r>   -1.0012    1.0000 </r>
       <r>   -0.7924    1.0000 </r>
       <r>   -0.4795    1.0000 </r>
       <r>   -0.2878    1.0000 </r>
       <r>    0.1955    1.0000 </r>
       <r>    0.2819    1.0000 </r>
       <r>    0.5596    1.0000 </r>
       <r>    1.0150    1.0000 </r>
       <r>    1.2412    1.0000 </r>
       <r>    9.6351    0.0000 </r>
       <r>   10.3716    0.0000 </r>
       <r>   10.9654    0.0000 </r>
       <r>   10.9896    0.0000 </r>
       <r>   11.9984    0.0000 </r>
      </set>
      <set comment="kpoint 4">
       <r>  -17.6754    1.0000 </r>
       <r>  -17.1515    1.0000 </r>
       <r>  -16.5957    1.0000 </r>
       <r>  -16.0405    1.0000 </r>
       <r>  -15.9985    1.0000 </r>
       <r>  -15.9647    1.0000 </r>
       <r>   -7.0589    1.0000 </r>
       <r>   -5.9058    1.0000 </r>
       <r>   -4.8494    1.0000 </r>
       <r>   -4.0740    1.0000 </r>
       <r>   -3.9327    1.0000 </r>
       <r>   -3.2896    1.0000 </r>
       <r>   -1.7833    1.0000 </r>
       <r>   -1.6280    1.0000 </r>
       <r>   -1.4651    1.0000 </r>
       <r>   -0.8973    1.0000 </r>
       <r>   -0.8478    1.0000 </r>
       <r>   -0.4277    1.0000 </r>
       <r>   -0.2437    1.0000 </r>
       <r>   -0.0086    1.0000 </r>
       <r>    0.2524    1.0000 </r>
       <r>    0.6679    1.0000 </r>
       <r>    0.9803    1.0000 </r>
       <r>    1.2630    1.0000 </r>
       <r>    9.4762    0.0000 </r>
       <r>   10.7356    0.0000 </r>
       <r>   10.7720    0.0000 </r>
       <r>   11.4411    0.0000 </r>
       <r>   11.5795    0.0000 </r>
      </set>
      <set comment="kpoint 5">
       <r>  -18.0467    1.0000 </r>
       <r>  -17.1800    1.0000 </r>
       <r>  -16.1696    1.0000 </r>
       <r>  -15.9556    1.0000 </r>
       <r>  -15.9536    1.0000 </r>
       <r>  -15.9227    1.0000 </r>
       <r>   -7.6522    1.0000 </r>
       <r>   -5.8673    1.0000 </r>
       <r>   -4.3682    1.0000 </r>
       <r>   -4.1815    1.0000 </r>
       <r>   -4.1301    1.0000 </r>
       <r>   -3.5528    1.0000 </r>
       <r>   -1.7666    1.0000 </r>
       <r>   -1.4402    1.0000 </r>
       <r>   -1.3092    1.0000 </r>
       <r>   -0.9472    1.0000 </r>
       <r>   -0.4233    1.0000 </r>
       <r>   -0.2927    1.0000 </r>
       <r>   -0.1653    1.0000 </r>
       <r>   -0.1613    1.0000 </r>
       <r>    0.1777    1.0000 </r>
       <r>    0.6299    1.0000 </r>
       <r>    1.0941    1.0000 </r>
       <r>    1.1786    1.0000 </r>
       <r>    7.9359    0.0000 </r>
       <r>   10.4178    0.0000 </r>
       <r>   10.6311    0.0000 </r>
       <r>   10.6442    0.0000 </r>
       <r>   11.6494    0.0000 </r>
      </set>
      <set comment="kpoint 6">
       <r>  -17.8795    1.0000 </r>
       <r>  -17.1561    1.0000 </r>
       <r>  -16.3550    1.0000 </r>
       <r>  -16.0142    1.0000 </r>
       <r>  -15.9924    1.0000 </r>
       <r>  -15.9404    1.0000 </r>
       <r>   -7.3280    1.0000 </r>
       <r>   -5.9249    1.0000 </r>
       <r>   -4.6326    1.0000 </r>
       <r>   -4.0960    1.0000 </r>
       <r>   -3.8304    1.0000 </r>
       <r>   -3.6546    1.0000 </r>
       <r>   -1.9391    1.0000 </r>
       <r>   -1.4329    1.0000 </r>
       <r>   -1.3054    1.0000 </r>
       <r>   -0.9654    1.0000 </r>
       <r>   -0.6437    1.0000 </r>
       <r>   -0.3020    1.0000 </r>
       <r>   -0.1670    1.0000 </r>
       <r>    0.0580    1.0000 </r>
       <r>    0.3183    1.0000 </r>
       <r>    0.4880    1.0000 </r>
       <r>    1.0121    1.0000 </r>
       <r>    1.1509    1.0000 </r>
       <r>    8.7073    0.0000 </r>
       <r>   10.4520    0.0000 </r>
       <r>   10.7348    0.0000 </r>
       <r>   10.9638    0.0000 </r>
       <r>   11.6991    0.0000 </r>
      </set>
      <set comment="kpoint 7">
       <r>  -17.8823    1.0000 </r>
       <r>  -17.1426    1.0000 </r>
       <r>  -16.3862    1.0000 </r>
       <r>  -16.0151    1.0000 </r>
       <r>  -15.9595    1.0000 </r>
       <r>  -15.9514    1.0000 </r>
       <r>   -7.3302    1.0000 </r>
       <r>   -5.9298    1.0000 </r>
       <r>   -4.6333    1.0000 </r>
       <r>   -4.1189    1.0000 </r>
       <r>   -3.8572    1.0000 </r>
       <r>   -3.5702    1.0000 </r>
       <r>   -1.8926    1.0000 </r>
       <r>   -1.3903    1.0000 </r>
       <r>   -1.3601    1.0000 </r>
       <r>   -1.1093    1.0000 </r>
       <r>   -0.6941    1.0000 </r>
       <r>   -0.2004    1.0000 </r>
       <r>   -0.1045    1.0000 </r>
       <r>    0.0409    1.0000 </r>
       <r>    0.3868    1.0000 </r>
       <r>    0.4108    1.0000 </r>
       <r>    0.9059    1.0000 </r>
       <r>    1.2524    1.0000 </r>
       <r>    8.6702    0.0000 </r>
       <r>   10.5744    0.0000 </r>
       <r>   10.8872    0.0000 </r>
       <r>   11.0276    0.0000 </r>
       <r>   11.5534    0.0000 </r>
      </set>
      <set comment="kpoint 8">
       <r>  -17.6282    1.0000 </r>
       <r>  -17.1623    1.0000 </r>
       <r>  -16.6338    1.0000 </r>
       <r>  -16.0519    1.0000 </r>
       <r>  -16.0073    1.0000 </r>
       <r>  -15.9588    1.0000 </r>
       <r>   -6.9564    1.0000 </r>
       <r>   -5.9804    1.0000 </r>
       <r>   -4.8533    1.0000 </r>
       <r>   -4.0802    1.0000 </r>
       <r>   -3.7933    1.0000 </r>
       <r>   -3.4625    1.0000 </r>
       <r>   -1.8854    1.0000 </r>
       <r>   -1.7936    1.0000 </r>
       <r>   -1.2421    1.0000 </r>
       <r>   -1.0499    1.0000 </r>
       <r>   -0.5803    1.0000 </r>
       <r>   -0.4813    1.0000 </r>
       <r>   -0.1350    1.0000 </r>
       <r>    0.1304    1.0000 </r>
       <r>    0.3593    1.0000 </r>
       <r>    0.5973    1.0000 </r>
       <r>    0.8240    1.0000 </r>
       <r>    1.1740    1.0000 </r>
       <r>    9.9103    0.0000 </r>
       <r>   10.4311    0.0000 </r>
       <r>   10.8817    0.0000 </r>
       <r>   11.3082    0.0000 </r>
       <r>   11.8024    0.0000 </r>
      </set>
      <set comment="kpoint 9">
       <r>  -17.6301    1.0000 </r>
       <r>  -17.1632    1.0000 </r>
       <r>  -16.6247    1.0000 </r>
       <r>  -16.0435    1.0000 </r>
       <r>  -16.0195    1.0000 </r>
       <r>  -15.9628    1.0000 </r>
       <r>   -6.9640    1.0000 </r>
       <r>   -5.8808    1.0000 </r>
[...]
       <r>    1.2157    1.0000 </r>
       <r>    9.3085    0.0000 </r>
       <r>    9.3085    0.0000 </r>
       <r>   10.4336    0.0000 </r>
       <r>   10.9941    0.0000 </r>
       <r>   10.9941    0.0000 </r>
      </set>
      <set comment="kpoint 12">
       <r>  -17.6424    1.0000 </r>
       <r>  -17.5018    1.0000 </r>
       <r>  -16.2496    1.0000 </r>
       <r>  -16.0272    1.0000 </r>
       <r>  -15.9734    1.0000 </r>
       <r>  -15.9426    1.0000 </r>
       <r>   -7.5168    1.0000 </r>
       <r>   -5.3543    1.0000 </r>
       <r>   -5.0126    1.0000 </r>
       <r>   -4.0964    1.0000 </r>
       <r>   -3.9726    1.0000 </r>
       <r>   -3.4571    1.0000 </r>
       <r>   -1.7490    1.0000 </r>
       <r>   -1.7305    1.0000 </r>
       <r>   -1.2092    1.0000 </r>
       <r>   -0.9365    1.0000 </r>
       <r>   -0.7530    1.0000 </r>
       <r>   -0.2542    1.0000 </r>
       <r>   -0.1573    1.0000 </r>
       <r>    0.0431    1.0000 </r>
       <r>    0.1864    1.0000 </r>
       <r>    0.7963    1.0000 </r>
       <r>    0.8304    1.0000 </r>
       <r>    1.1411    1.0000 </r>
       <r>    9.6763    0.0000 </r>
       <r>    9.8378    0.0000 </r>
       <r>   10.7237    0.0000 </r>
       <r>   11.0287    0.0000 </r>
       <r>   11.3861    0.0000 </r>
      </set>
      <set comment="kpoint 13">
       <r>  -17.5872    1.0000 </r>
       <r>  -17.1414    1.0000 </r>
       <r>  -16.7049    1.0000 </r>
       <r>  -16.0736    1.0000 </r>
       <r>  -15.9932    1.0000 </r>
       <r>  -15.9589    1.0000 </r>
       <r>   -6.8760    1.0000 </r>
       <r>   -5.9141    1.0000 </r>
       <r>   -5.0478    1.0000 </r>
       <r>   -3.9970    1.0000 </r>
       <r>   -3.7051    1.0000 </r>
       <r>   -3.6149    1.0000 </r>
       <r>   -1.9309    1.0000 </r>
       <r>   -1.9231    1.0000 </r>
       <r>   -1.1444    1.0000 </r>
       <r>   -0.8283    1.0000 </r>
       <r>   -0.7467    1.0000 </r>
       <r>   -0.2749    1.0000 </r>
       <r>    0.0229    1.0000 </r>
       <r>    0.1890    1.0000 </r>
       <r>    0.3980    1.0000 </r>
       <r>    0.4040    1.0000 </r>
       <r>    0.6988    1.0000 </r>
       <r>    1.1195    1.0000 </r>
       <r>   10.2273    0.0000 </r>
       <r>   10.7251    0.0000 </r>
       <r>   11.0144    0.0000 </r>
       <r>   11.2003    0.0000 </r>
       <r>   11.5388    0.0000 </r>
      </set>
      <set comment="kpoint 14">
       <r>  -17.5752    1.0000 </r>
       <r>  -17.1860    1.0000 </r>
       <r>  -16.6523    1.0000 </r>
       <r>  -16.0617    1.0000 </r>
       <r>  -15.9944    1.0000 </r>
       <r>  -15.9910    1.0000 </r>
       <r>   -6.8566    1.0000 </r>
       <r>   -5.8701    1.0000 </r>
       <r>   -5.1562    1.0000 </r>
       <r>   -3.8978    1.0000 </r>
       <r>   -3.7950    1.0000 </r>
       <r>   -3.6155    1.0000 </r>
       <r>   -1.9739    1.0000 </r>
       <r>   -1.7469    1.0000 </r>
       <r>   -1.2647    1.0000 </r>
       <r>   -0.9003    1.0000 </r>
       <r>   -0.6224    1.0000 </r>
       <r>   -0.4222    1.0000 </r>
       <r>    0.1493    1.0000 </r>
       <r>    0.2557    1.0000 </r>
       <r>    0.3284    1.0000 </r>
       <r>    0.5712    1.0000 </r>
       <r>    0.7165    1.0000 </r>
       <r>    0.9241    1.0000 </r>
       <r>   10.1771    0.0000 </r>
       <r>   10.6509    0.0000 </r>
       <r>   10.9632    0.0000 </r>
       <r>   11.3049    0.0000 </r>
       <r>   11.7227    0.0000 </r>
      </set>
     </set>
    </set>
   </array>
  </eigenvalues>
  <separator name="orbital magnetization" >
   <v name="MAGDIPOLOUT">      0.00000000      0.00000000      0.00000000</v>
  </separator>
  <dos>
   <i name="efermi">      1.78416406 </i>
   <total>
    <array>
     <dimension dim="1">gridpoints</dimension>
     <dimension dim="2">spin</dimension>
     <field>energy</field>
     <field>total</field>
     <field>integrated</field>
     <set>
      <set comment="spin 1">
       <r>   -19.6804     0.0000     0.0000 </r>
       <r>   -19.5698     0.0000     0.0000 </r>
       <r>   -19.4592     0.0000     0.0000 </r>
       <r>   -19.3486     0.0000     0.0000 </r>
       <r>   -19.2379     0.0000     0.0000 </r>
       <r>   -19.1273     0.0000     0.0000 </r>
       <r>   -19.0167     0.0000     0.0000 </r>
       <r>   -18.9061     0.0000     0.0000 </r>
       <r>   -18.7955     0.0000     0.0000 </r>
       <r>   -18.6848     0.0000     0.0000 </r>
       <r>   -18.5742     0.0000     0.0000 </r>
       <r>   -18.4636     0.0000     0.0000 </r>
       <r>   -18.3530     0.0015     0.0002 </r>
       <r>   -18.2423     0.0455     0.0052 </r>
       <r>   -18.1317     0.2561     0.0335 </r>
       <r>   -18.0211     0.9592     0.1396 </r>
       <r>   -17.9105     2.1805     0.3809 </r>
       <r>   -17.7998     2.2491     0.6297 </r>
       <r>   -17.6892     3.1556     0.9787 </r>
       <r>   -17.5786     6.7081     1.7208 </r>
       <r>   -17.4680     3.7427     2.1349 </r>
       <r>   -17.3573     0.7678     2.2198 </r>
       <r>   -17.2467     1.6667     2.4042 </r>
       <r>   -17.1361     7.3330     3.2154 </r>
       <r>   -17.0255     4.7029     3.7356 </r>
       <r>   -16.9148     0.5610     3.7977 </r>
       <r>   -16.8042     0.9817     3.9063 </r>
       <r>   -16.6936     2.7453     4.2100 </r>
       <r>   -16.5830     6.4594     4.9246 </r>
       <r>   -16.4723     3.7488     5.3393 </r>
       <r>   -16.3617     1.9945     5.5599 </r>
       <r>   -16.2511     2.2040     5.8037 </r>
       <r>   -16.1405     3.0142     6.1372 </r>
       <r>   -16.0298    16.0955     7.9177 </r>
       <r>   -15.9192    27.1249    10.9184 </r>
       <r>   -15.8086     9.2400    11.9406 </r>
       <r>   -15.6980     0.5329    11.9995 </r>
       <r>   -15.5873     0.0042    12.0000 </r>
       <r>   -15.4767     0.0000    12.0000 </r>
       <r>   -15.3661     0.0000    12.0000 </r>
       <r>   -15.2555     0.0000    12.0000 </r>
       <r>   -15.1448     0.0000    12.0000 </r>
       <r>   -15.0342     0.0000    12.0000 </r>
       <r>   -14.9236     0.0000    12.0000 </r>
       <r>   -14.8130     0.0000    12.0000 </r>
       <r>   -14.7023     0.0000    12.0000 </r>
       <r>   -14.5917     0.0000    12.0000 </r>
       <r>   -14.4811     0.0000    12.0000 </r>
       <r>   -14.3705     0.0000    12.0000 </r>
       <r>   -14.2598     0.0000    12.0000 </r>
       <r>   -14.1492     0.0000    12.0000 </r>
       <r>   -14.0386     0.0000    12.0000 </r>
       <r>   -13.9280     0.0000    12.0000 </r>
       <r>   -13.8173     0.0000    12.0000 </r>
       <r>   -13.7067     0.0000    12.0000 </r>
       <r>   -13.5961     0.0000    12.0000 </r>
       <r>   -13.4855     0.0000    12.0000 </r>
       <r>   -13.3748     0.0000    12.0000 </r>
       <r>   -13.2642     0.0000    12.0000 </r>
       <r>   -13.1536     0.0000    12.0000 </r>
       <r>   -13.0430     0.0000    12.0000 </r>
       <r>   -12.9324     0.0000    12.0000 </r>
       <r>   -12.8217     0.0000    12.0000 </r>
       <r>   -12.7111     0.0000    12.0000 </r>
       <r>   -12.6005     0.0000    12.0000 </r>
       <r>   -12.4899     0.0000    12.0000 </r>
       <r>   -12.3792     0.0000    12.0000 </r>
       <r>   -12.2686     0.0000    12.0000 </r>
       <r>   -12.1580     0.0000    12.0000 </r>
       <r>   -12.0474     0.0000    12.0000 </r>
       <r>   -11.9367     0.0000    12.0000 </r>
       <r>   -11.8261     0.0000    12.0000 </r>
       <r>   -11.7155     0.0000    12.0000 </r>
       <r>   -11.6049     0.0000    12.0000 </r>
       <r>   -11.4942     0.0000    12.0000 </r>
       <r>   -11.3836     0.0000    12.0000 </r>
       <r>   -11.2730     0.0000    12.0000 </r>
       <r>   -11.1624     0.0000    12.0000 </r>
       <r>   -11.0517     0.0000    12.0000 </r>
       <r>   -10.9411     0.0000    12.0000 </r>
       <r>   -10.8305     0.0000    12.0000 </r>
       <r>   -10.7199     0.0000    12.0000 </r>
       <r>   -10.6092     0.0000    12.0000 </r>
       <r>   -10.4986     0.0000    12.0000 </r>
       <r>   -10.3880     0.0000    12.0000 </r>
       <r>   -10.2774     0.0000    12.0000 </r>
       <r>   -10.1667     0.0000    12.0000 </r>
       <r>   -10.0561     0.0000    12.0000 </r>
       <r>    -9.9455     0.0000    12.0000 </r>
       <r>    -9.8349     0.0000    12.0000 </r>
       <r>    -9.7242     0.0000    12.0000 </r>
       <r>    -9.6136     0.0000    12.0000 </r>
       <r>    -9.5030     0.0000    12.0000 </r>
       <r>    -9.3924     0.0000    12.0000 </r>
       <r>    -9.2817     0.0000    12.0000 </r>
       <r>    -9.1711     0.0000    12.0000 </r>
       <r>    -9.0605     0.0000    12.0000 </r>
       <r>    -8.9499     0.0000    12.0000 </r>
       <r>    -8.8392     0.0000    12.0000 </r>
       <r>    -8.7286     0.0000    12.0000 </r>
       <r>    -8.6180     0.0000    12.0000 </r>
       <r>    -8.5074     0.0000    12.0000 </r>
       <r>    -8.3967     0.0000    12.0000 </r>
       <r>    -8.2861     0.0000    12.0000 </r>
       <r>    -8.1755     0.0001    12.0000 </r>
       <r>    -8.0649     0.0117    12.0013 </r>
       <r>    -7.9542     0.1109    12.0136 </r>
       <r>    -7.8436     0.1388    12.0289 </r>
       <r>    -7.7330     0.0938    12.0393 </r>
       <r>    -7.6224     0.4167    12.0854 </r>
       <r>    -7.5118     0.9747    12.1932 </r>
       <r>    -7.4011     1.2315    12.3295 </r>
       <r>    -7.2905     1.9611    12.5464 </r>
       <r>    -7.1799     1.0288    12.6602 </r>
       <r>    -7.0693     1.3913    12.8142 </r>
       <r>    -6.9586     4.6217    13.3254 </r>
       <r>    -6.8480     4.7494    13.8508 </r>
       <r>    -6.7374     1.5147    14.0184 </r>
       <r>    -6.6268     0.1966    14.0401 </r>
       <r>    -6.5161     0.7008    14.1177 </r>
       <r>    -6.4055     0.7929    14.2054 </r>
       <r>    -6.2949     0.1189    14.2185 </r>
       <r>    -6.1843     0.0259    14.2214 </r>
       <r>    -6.0736     0.5259    14.2796 </r>
       <r>    -5.9630     3.4215    14.6581 </r>
       <r>    -5.8524     6.9588    15.4279 </r>
       <r>    -5.7418     2.9887    15.7585 </r>
       <r>    -5.6311     0.2038    15.7811 </r>
       <r>    -5.5205     0.0175    15.7830 </r>
       <r>    -5.4099     0.3501    15.8217 </r>
       <r>    -5.2993     0.9957    15.9319 </r>
       <r>    -5.1886     0.9256    16.0343 </r>
       <r>    -5.0780     2.1912    16.2767 </r>
       <r>    -4.9674     3.8975    16.7078 </r>
       <r>    -4.8568     2.9770    17.0371 </r>
       <r>    -4.7461     1.8785    17.2450 </r>
       <r>    -4.6355     1.7987    17.4439 </r>
       <r>    -4.5249     1.9983    17.6650 </r>
       <r>    -4.4143     0.6221    17.7338 </r>
       <r>    -4.3036     0.7467    17.8164 </r>
       <r>    -4.1930     3.0780    18.1569 </r>
       <r>    -4.0824     8.8544    19.1365 </r>
       <r>    -3.9718     9.6908    20.2085 </r>
       <r>    -3.8611     6.6574    20.9450 </r>
       <r>    -3.7505     6.7705    21.6940 </r>
       <r>    -3.6399     5.6641    22.3205 </r>
       <r>    -3.5293     5.6946    22.9505 </r>
       <r>    -3.4186     5.0945    23.5141 </r>
       <r>    -3.3080     2.6706    23.8095 </r>
       <r>    -3.1974     1.4562    23.9706 </r>
       <r>    -3.0868     0.2597    23.9993 </r>
       <r>    -2.9761     0.0060    24.0000 </r>
       <r>    -2.8655     0.0000    24.0000 </r>
       <r>    -2.7549     0.0000    24.0000 </r>
       <r>    -2.6443     0.0000    24.0000 </r>
       <r>    -2.5336     0.0000    24.0000 </r>
       <r>    -2.4230     0.0000    24.0000 </r>
       <r>    -2.3124     0.0000    24.0000 </r>
       <r>    -2.2018     0.0015    24.0002 </r>
       <r>    -2.0912     0.1608    24.0180 </r>
       <r>    -1.9805     2.6116    24.3069 </r>
       <r>    -1.8699     7.9446    25.1857 </r>
       <r>    -1.7593     8.1355    26.0857 </r>
       <r>    -1.6487     6.8248    26.8407 </r>
       <r>    -1.5380     5.3505    27.4326 </r>
       <r>    -1.4274     6.3528    28.1354 </r>
       <r>    -1.3168     8.5007    29.0758 </r>
       <r>    -1.2062     5.9559    29.7346 </r>
       <r>    -1.0955     3.8927    30.1653 </r>
       <r>    -0.9849     4.8369    30.7003 </r>
       <r>    -0.8743     8.3877    31.6282 </r>
       <r>    -0.7637     6.9459    32.3966 </r>
       <r>    -0.6530     7.3716    33.2121 </r>
       <r>    -0.5424     6.3330    33.9127 </r>
       <r>    -0.4318     6.2563    34.6048 </r>
       <r>    -0.3212     5.9544    35.2635 </r>
       <r>    -0.2105     8.0381    36.1527 </r>
       <r>    -0.0999     9.8446    37.2417 </r>
       <r>     0.0107     8.1717    38.1457 </r>
       <r>     0.1213     8.9371    39.1344 </r>
       <r>     0.2320     9.4889    40.1841 </r>
       <r>     0.3426    10.6951    41.3672 </r>
       <r>     0.4532     8.7597    42.3363 </r>
       <r>     0.5638     5.7946    42.9773 </r>
       <r>     0.6745     6.2857    43.6727 </r>
       <r>     0.7851     5.2737    44.2561 </r>
       <r>     0.8957     6.6491    44.9916 </r>
       <r>     1.0063     6.7060    45.7335 </r>
       <r>     1.1170     7.8195    46.5985 </r>
       <r>     1.2276     8.3123    47.5180 </r>
       <r>     1.3382     3.7927    47.9376 </r>
       <r>     1.4488     0.5505    47.9985 </r>
       <r>     1.5595     0.0136    48.0000 </r>
       <r>     1.6701     0.0000    48.0000 </r>
       <r>     1.7807     0.0000    48.0000 </r>
       <r>     1.8913     0.0000    48.0000 </r>
       <r>     2.0020     0.0000    48.0000 </r>
       <r>     2.1126     0.0000    48.0000 </r>
       <r>     2.2232     0.0000    48.0000 </r>
       <r>     2.3338     0.0000    48.0000 </r>
       <r>     2.4445     0.0000    48.0000 </r>
       <r>     2.5551     0.0000    48.0000 </r>
       <r>     2.6657     0.0000    48.0000 </r>
       <r>     2.7763     0.0000    48.0000 </r>
       <r>     2.8870     0.0000    48.0000 </r>
       <r>     2.9976     0.0000    48.0000 </r>
       <r>     3.1082     0.0000    48.0000 </r>
       <r>     3.2188     0.0000    48.0000 </r>
       <r>     3.3295     0.0000    48.0000 </r>
       <r>     3.4401     0.0000    48.0000 </r>
       <r>     3.5507     0.0000    48.0000 </r>
       <r>     3.6613     0.0000    48.0000 </r>
       <r>     3.7719     0.0000    48.0000 </r>
       <r>     3.8826     0.0000    48.0000 </r>
       <r>     3.9932     0.0000    48.0000 </r>
       <r>     4.1038     0.0000    48.0000 </r>
       <r>     4.2144     0.0000    48.0000 </r>
       <r>     4.3251     0.0000    48.0000 </r>
       <r>     4.4357     0.0000    48.0000 </r>
       <r>     4.5463     0.0000    48.0000 </r>
       <r>     4.6569     0.0000    48.0000 </r>
       <r>     4.7676     0.0000    48.0000 </r>
       <r>     4.8782     0.0000    48.0000 </r>
       <r>     4.9888     0.0000    48.0000 </r>
       <r>     5.0994     0.0000    48.0000 </r>
       <r>     5.2101     0.0000    48.0000 </r>
       <r>     5.3207     0.0000    48.0000 </r>
       <r>     5.4313     0.0000    48.0000 </r>
       <r>     5.5419     0.0000    48.0000 </r>
       <r>     5.6526     0.0000    48.0000 </r>
       <r>     5.7632     0.0000    48.0000 </r>
       <r>     5.8738     0.0000    48.0000 </r>
       <r>     5.9844     0.0000    48.0000 </r>
       <r>     6.0951     0.0000    48.0000 </r>
       <r>     6.2057     0.0000    48.0000 </r>
       <r>     6.3163     0.0000    48.0000 </r>
       <r>     6.4269     0.0000    48.0000 </r>
       <r>     6.5376     0.0000    48.0000 </r>
       <r>     6.6482     0.0000    48.0000 </r>
       <r>     6.7588     0.0000    48.0000 </r>
       <r>     6.8694     0.0000    48.0000 </r>
       <r>     6.9801     0.0000    48.0000 </r>
       <r>     7.0907     0.0001    48.0000 </r>
       <r>     7.2013     0.0117    48.0013 </r>
       <r>     7.3119     0.1111    48.0136 </r>
       <r>     7.4226     0.1368    48.0287 </r>
       <r>     7.5332     0.0223    48.0312 </r>
       <r>     7.6438     0.0004    48.0313 </r>
       <r>     7.7544     0.0029    48.0316 </r>
       <r>     7.8651     0.0865    48.0411 </r>
       <r>     7.9757     0.3138    48.0758 </r>
       <r>     8.0863     0.1846    48.0963 </r>
       <r>     8.1969     0.4941    48.1509 </r>
       <r>     8.3076     0.9308    48.2539 </r>
       <r>     8.4182     0.2401    48.2805 </r>
       <r>     8.5288     0.0555    48.2866 </r>
       <r>     8.6394     0.7995    48.3750 </r>
       <r>     8.7501     1.8604    48.5809 </r>
       <r>     8.8607     0.6500    48.6528 </r>
       <r>     8.9713     0.0313    48.6562 </r>
       <r>     9.0819     0.0006    48.6563 </r>
       <r>     9.1925     0.0282    48.6594 </r>
       <r>     9.3032     0.2492    48.6870 </r>
       <r>     9.4138     0.5697    48.7500 </r>
       <r>     9.5244     1.0725    48.8686 </r>
       <r>     9.6350     1.4396    49.0279 </r>
       <r>     9.7457     3.0560    49.3660 </r>
       <r>     9.8563     2.9853    49.6962 </r>
       <r>     9.9669     1.7650    49.8915 </r>
       <r>    10.0775     0.5498    49.9523 </r>
       <r>    10.1882     1.0704    50.0707 </r>
       <r>    10.2988     1.3745    50.2227 </r>
       <r>    10.4094     2.0421    50.4486 </r>
       <r>    10.5200     3.1192    50.7937 </r>
       <r>    10.6307     5.0287    51.3500 </r>
       <r>    10.7413     9.0483    52.3510 </r>
       <r>    10.8519     6.2253    53.0396 </r>
       <r>    10.9625     6.5001    53.7587 </r>
       <r>    11.0732     7.3892    54.5761 </r>
       <r>    11.1838     3.0362    54.9120 </r>
       <r>    11.2944     3.6492    55.3157 </r>
       <r>    11.4050     5.6483    55.9405 </r>
       <r>    11.5157     6.3236    56.6401 </r>
       <r>    11.6263     5.3690    57.2340 </r>
       <r>    11.7369     3.3693    57.6068 </r>
       <r>    11.8475     2.1799    57.8479 </r>
       <r>    11.9582     0.7443    57.9302 </r>
       <r>    12.0688     0.4950    57.9850 </r>
       <r>    12.1794     0.1311    57.9995 </r>
       <r>    12.2900     0.0044    58.0000 </r>
       <r>    12.4007     0.0000    58.0000 </r>
       <r>    12.5113     0.0000    58.0000 </r>
       <r>    12.6219     0.0000    58.0000 </r>
       <r>    12.7325     0.0000    58.0000 </r>
       <r>    12.8432     0.0000    58.0000 </r>
       <r>    12.9538     0.0000    58.0000 </r>
       <r>    13.0644     0.0000    58.0000 </r>
       <r>    13.1750     0.0000    58.0000 </r>
       <r>    13.2857     0.0000    58.0000 </r>
       <r>    13.3963     0.0000    58.0000 </r>
       <r>    13.5069     0.0000    58.0000 </r>
      </set>
     </set>
    </array>
   </total>
  </dos>
 </calculation>
 <structure name="finalpos" >
  <crystal>
   <varray name="basis" >
    <v>       4.87342988       0.00000000       0.00000000 </v>
    <v>      -2.43671494       4.22051408       0.00000000 </v>
    <v>       0.00000000       0.00000000       5.37418982 </v>
   </varray>
   <i name="volume">    110.53837516 </i>
   <varray name="rec_basis" >
    <v>       0.20519429       0.11846898      -0.00000000 </v>
    <v>       0.00000000       0.23693796       0.00000000 </v>
    <v>       0.00000000      -0.00000000       0.18607456 </v>
   </varray>
  </crystal>
  <varray name="positions" >
   <v>       0.46463522       0.99990454       0.66659295 </v>
   <v>       0.00009546       0.46473068       0.33325961 </v>
   <v>       0.53526932       0.53536478       0.99992628 </v>
   <v>       0.13530525       0.72393544       0.55425348 </v>
   <v>       0.27606456       0.41136981       0.22092014 </v>
   <v>       0.58863019       0.86469475       0.88758681 </v>
   <v>       0.41164091       0.27597042       0.77920927 </v>
   <v>       0.86432951       0.58835909       0.11254260 </v>
   <v>       0.72402958       0.13567049       0.44587593 </v>
  </varray>
 </structure>
</modeling>
