<?xml version="1.0" encoding="ISO-8859-1"?>
<modeling>
 <generator>
  <i name="program" type="string">vasp </i>
  <i name="version" type="string">6.4.1  </i>
  <i name="subversion" type="string">05Apr23 (build Sep  6 2023 20:49:31) complex                          parallel </i>
  <i name="platform" type="string">LinuxNV </i>
  <i name="date" type="string">2023 10 19 </i>
  <i name="time" type="string">14:05:34 </i>
 </generator>
 <incar>
  <i type="string" name="PREC">Accurate</i>
  <i type="string" name="ALGO">Fast</i>
  <i name="EDIFF">      0.00000001</i>
  <i name="ENCUT">    500.00000000</i>
  <i type="int" name="ISMEAR">     0</i>
  <i name="SIGMA">      0.10000000</i>
  <i type="logical" name="LEPSILON"> T  </i>
 </incar>
 <primitive_cell>
  <structure name="primitive_cell" >
   <crystal>
    <varray name="basis" >
     <v>       4.87342988       0.00000000       0.00000000 </v>
     <v>      -2.43671494       4.22051408       0.00000000 </v>
     <v>       0.00000000       0.00000000       5.37418982 </v>
    </varray>
    <i name="volume">    110.53837516 </i>
    <varray name="rec_basis" >
     <v>       0.20519429       0.11846898      -0.00000000 </v>
     <v>       0.00000000       0.23693796       0.00000000 </v>
     <v>       0.00000000      -0.00000000       0.18607456 </v>
    </varray>
   </crystal>
   <varray name="positions" >
    <v>       0.46465378       0.99994165       0.66664669 </v>
    <v>       0.99997083       0.46470471       0.33334332 </v>
    <v>       0.53536798       0.53533881       0.00000999 </v>
    <v>       0.13538577       0.72384523       0.55431838 </v>
    <v>       0.27608387       0.41166475       0.22088228 </v>
    <v>       0.58868921       0.86450303       0.88736566 </v>
    <v>       0.41147018       0.27588021       0.77927417 </v>
    <v>       0.86460514       0.58865403       0.11250473 </v>
    <v>       0.72377885       0.13547878       0.44565478 </v>
   </varray>
  </structure>
  <varray name="primitive_index" >
   <v type="int" >        1 </v>
   <v type="int" >        2 </v>
   <v type="int" >        3 </v>
   <v type="int" >        4 </v>
   <v type="int" >        5 </v>
   <v type="int" >        6 </v>
   <v type="int" >        7 </v>
   <v type="int" >        8 </v>
   <v type="int" >        9 </v>
  </varray>
 </primitive_cell>
 <kpoints>
  <generation param="Gamma">
   <v type="int" name="divisions">       4        4        4 </v>
   <v name="usershift">      0.00000000       0.00000000       0.00000000 </v>
   <v name="genvec1">      0.25000000       0.00000000       0.00000000 </v>
   <v name="genvec2">      0.00000000       0.25000000       0.00000000 </v>
   <v name="genvec3">      0.00000000       0.00000000       0.25000000 </v>
   <v name="shift">      0.00000000       0.00000000       0.00000000 </v>
  </generation>
  <varray name="kpointlist" >
   <v>       0.00000000       0.00000000       0.00000000 </v>
   <v>       0.25000000       0.00000000       0.00000000 </v>
   <v>       0.00000000       0.25000000       0.00000000 </v>
   <v>      -0.25000000       0.25000000       0.00000000 </v>
   <v>       0.50000000       0.00000000       0.00000000 </v>
   <v>       0.00000000       0.50000000       0.00000000 </v>
   <v>       0.50000000       0.50000000       0.00000000 </v>
   <v>       0.25000000       0.25000000       0.00000000 </v>
   <v>      -0.25000000       0.50000000       0.00000000 </v>
   <v>       0.50000000       0.25000000       0.00000000 </v>
   <v>       0.00000000       0.00000000       0.25000000 </v>
   <v>       0.25000000       0.00000000       0.25000000 </v>
   <v>       0.00000000       0.25000000       0.25000000 </v>
   <v>      -0.25000000       0.25000000       0.25000000 </v>
   <v>      -0.25000000       0.00000000       0.25000000 </v>
   <v>       0.00000000      -0.25000000       0.25000000 </v>
   <v>       0.25000000      -0.25000000       0.25000000 </v>
   <v>       0.50000000       0.00000000       0.25000000 </v>
   <v>       0.00000000       0.50000000       0.25000000 </v>
   <v>       0.50000000       0.50000000       0.25000000 </v>
   <v>       0.25000000       0.25000000       0.25000000 </v>
   <v>      -0.25000000       0.50000000       0.25000000 </v>
   <v>       0.50000000       0.25000000       0.25000000 </v>
   <v>      -0.25000000      -0.25000000       0.25000000 </v>
   <v>       0.25000000       0.50000000       0.25000000 </v>
   <v>       0.50000000      -0.25000000       0.25000000 </v>
   <v>       0.00000000       0.00000000       0.50000000 </v>
   <v>       0.25000000       0.00000000       0.50000000 </v>
   <v>       0.00000000       0.25000000       0.50000000 </v>
   <v>      -0.25000000       0.25000000       0.50000000 </v>
   <v>       0.50000000       0.00000000       0.50000000 </v>
   <v>       0.00000000       0.50000000       0.50000000 </v>
   <v>       0.50000000       0.50000000       0.50000000 </v>
   <v>       0.25000000       0.25000000       0.50000000 </v>
   <v>      -0.25000000       0.50000000       0.50000000 </v>
   <v>       0.50000000       0.25000000       0.50000000 </v>
  </varray>
  <varray name="weights" >
   <v>       0.01562500 </v>
   <v>       0.03125000 </v>
   <v>       0.03125000 </v>
   <v>       0.03125000 </v>
   <v>       0.01562500 </v>
   <v>       0.01562500 </v>
   <v>       0.01562500 </v>
   <v>       0.03125000 </v>
   <v>       0.03125000 </v>
   <v>       0.03125000 </v>
   <v>       0.03125000 </v>
   <v>       0.03125000 </v>
   <v>       0.03125000 </v>
   <v>       0.03125000 </v>
   <v>       0.03125000 </v>
   <v>       0.03125000 </v>
   <v>       0.03125000 </v>
   <v>       0.03125000 </v>
   <v>       0.03125000 </v>
   <v>       0.03125000 </v>
   <v>       0.03125000 </v>
   <v>       0.03125000 </v>
   <v>       0.03125000 </v>
   <v>       0.03125000 </v>
   <v>       0.03125000 </v>
   <v>       0.03125000 </v>
   <v>       0.01562500 </v>
   <v>       0.03125000 </v>
   <v>       0.03125000 </v>
   <v>       0.03125000 </v>
   <v>       0.01562500 </v>
   <v>       0.01562500 </v>
   <v>       0.01562500 </v>
   <v>       0.03125000 </v>
   <v>       0.03125000 </v>
   <v>       0.03125000 </v>
  </varray>
 </kpoints>
 <parameters>
  <separator name="general" >
   <i type="string" name="SYSTEM">unknown system</i>
   <i type="logical" name="LCOMPAT"> F  </i>
  </separator>
  <separator name="electronic" >
   <i type="string" name="PREC">accura</i>
   <i name="ENMAX">    500.00000000</i>
   <i name="ENAUG">    605.39200000</i>
   <i name="EDIFF">      0.00000001</i>
   <i type="int" name="IALGO">    68</i>
   <i type="int" name="IWAVPR">    10</i>
   <i type="int" name="NBANDS">    29</i>
   <i type="int" name="NBANDSLOW">    -1</i>
   <i type="int" name="NBANDSHIGH">    -1</i>
   <i name="NELECT">     48.00000000</i>
   <i type="int" name="TURBO">     0</i>
   <i type="int" name="IRESTART">     0</i>
   <i type="int" name="NREBOOT">     0</i>
   <i type="int" name="NMIN">     0</i>
   <i name="EREF">      0.00000000</i>
   <separator name="electronic smearing" >
    <i type="int" name="ISMEAR">     0</i>
    <i name="SIGMA">      0.10000000</i>
    <i name="KSPACING">      0.50000000</i>
    <i type="logical" name="KGAMMA"> T  </i>
    <i type="logical" name="KBLOWUP"> T  </i>
   </separator>
   <separator name="electronic projectors" >
    <i type="logical" name="LREAL"> F  </i>
    <v name="ROPT">      0.00000000      0.00000000</v>
    <i type="int" name="LMAXPAW">  -100</i>
    <i type="int" name="LMAXMIX">     2</i>
    <i type="logical" name="NLSPLINE"> F  </i>
   </separator>
   <separator name="electronic startup" >
    <i type="int" name="ISTART">     0</i>
    <i type="int" name="ICHARG">     2</i>
    <i type="int" name="INIWAV">     1</i>
   </separator>
   <separator name="electronic spin" >
    <i type="int" name="ISPIN">     1</i>
    <i type="logical" name="LNONCOLLINEAR"> F  </i>
    <v name="MAGMOM">      1.00000000      1.00000000      1.00000000      1.00000000      1.00000000      1.00000000      1.00000000      1.00000000      1.00000000</v>
    <i name="NUPDOWN">     -1.00000000</i>
    <i type="logical" name="LSORBIT"> F  </i>
    <v name="SAXIS">      0.00000000      0.00000000      1.00000000</v>
    <i type="logical" name="LSPIRAL"> F  </i>
    <v name="QSPIRAL">      0.00000000      0.00000000      0.00000000</v>
    <i type="logical" name="LZEROZ"> F  </i>
   </separator>
   <separator name="electronic exchange-correlation" >
    <i type="logical" name="LASPH"> F  </i>
    <i type="logical" name="LMETAGGA"> F  </i>
   </separator>
   <separator name="electronic convergence" >
    <i type="int" name="NELM">    60</i>
    <i type="int" name="NELMDL">    -5</i>
    <i type="int" name="NELMIN">     2</i>
    <i name="ENINI">    500.00000000</i>
    <separator name="electronic convergence detail" >
     <i type="logical" name="LDIAG"> T  </i>
     <i type="logical" name="LSUBROT"> F  </i>
     <i name="WEIMIN">      0.00000000</i>
     <i name="EBREAK">      0.00000000</i>
     <i name="DEPER">      0.30000000</i>
     <i type="int" name="NRMM">     4</i>
     <i name="TIME">      0.40000000</i>
    </separator>
   </separator>
   <separator name="electronic mixer" >
    <i name="AMIX">      0.40000000</i>
    <i name="BMIX">      1.00000000</i>
    <i name="AMIN">      0.10000000</i>
    <i name="AMIX_MAG">      1.60000000</i>
    <i name="BMIX_MAG">      1.00000000</i>
    <separator name="electronic mixer details" >
     <i type="int" name="IMIX">     4</i>
     <i type="logical" name="MIXFIRST"> F  </i>
     <i type="int" name="MAXMIX">   -45</i>
     <i name="WC">    100.00000000</i>
     <i type="int" name="INIMIX">     1</i>
     <i type="int" name="MIXPRE">     1</i>
     <i type="int" name="MREMOVE">     5</i>
    </separator>
   </separator>
   <separator name="electronic dipolcorrection" >
    <i type="logical" name="LDIPOL"> F  </i>
    <i type="logical" name="LMONO"> F  </i>
    <i type="int" name="IDIPOL">     0</i>
    <i name="EPSILON">      1.00000000</i>
    <v name="DIPOL">   -100.00000000   -100.00000000   -100.00000000</v>
    <i name="EFIELD">      0.00000000</i>
   </separator>
  </separator>
  <separator name="grids" >
   <i type="int" name="NGX">    36</i>
   <i type="int" name="NGY">    36</i>
   <i type="int" name="NGZ">    40</i>
   <i type="int" name="NGXF">    72</i>
   <i type="int" name="NGYF">    72</i>
   <i type="int" name="NGZF">    80</i>
   <i type="logical" name="ADDGRID"> F  </i>
  </separator>
  <separator name="ionic" >
   <i type="int" name="NSW">     0</i>
   <i type="int" name="IBRION">    -1</i>
   <i type="int" name="MDALGO">     0</i>
   <i type="int" name="ISIF">     2</i>
   <i name="PSTRESS">      0.00000000</i>
   <i name="EDIFFG">      0.00000010</i>
   <i type="int" name="NFREE">     0</i>
   <i name="POTIM">      0.50000000</i>
   <i name="SMASS">     -3.00000000</i>
   <i name="SCALEE">      1.00000000</i>
  </separator>
  <separator name="ionic md" >
   <i name="TEBEG">      0.00010000</i>
   <i name="TEEND">      0.00010000</i>
   <i type="int" name="NBLOCK">     1</i>
   <i type="int" name="KBLOCK">     1</i>
   <i type="int" name="NPACO">   256</i>
   <i name="APACO">     10.00000000</i>
  </separator>
  <separator name="symmetry" >
   <i type="int" name="ISYM">     2</i>
   <i name="SYMPREC">      0.00001000</i>
  </separator>
  <separator name="dos" >
   <i type="int" name="LORBIT">     0</i>
   <v name="RWIGS">     -1.00000000     -1.00000000</v>
   <i type="int" name="NEDOS">   301</i>
   <i name="EMIN">     10.00000000</i>
   <i name="EMAX">    -10.00000000</i>
   <i name="EFERMI">      0.00000000</i>
  </separator>
  <separator name="writing" >
   <i type="int" name="NWRITE">     2</i>
   <i type="logical" name="LWAVE"> T  </i>
   <i type="logical" name="LDOWNSAMPLE"> F  </i>
   <i type="logical" name="LCHARG"> T  </i>
   <i type="logical" name="LPARD"> F  </i>
   <i type="logical" name="LVTOT"> F  </i>
   <i type="logical" name="LVHAR"> F  </i>
   <i type="logical" name="LELF"> F  </i>
   <i type="logical" name="LOPTICS"> F  </i>
   <v name="STM">      0.00000000      0.00000000      0.00000000      0.00000000      0.00000000      0.00000000      0.00000000</v>
  </separator>
  <separator name="performance" >
   <i type="int" name="NPAR">     1</i>
   <i type="int" name="NSIM">     4</i>
   <i type="int" name="NBLK">    -1</i>
   <i type="logical" name="LPLANE"> T  </i>
   <i type="logical" name="LSCALAPACK"> T  </i>
   <i type="logical" name="LSCAAWARE"> F  </i>
   <i type="logical" name="LSCALU"> F  </i>
   <i type="logical" name="LASYNC"> F  </i>
   <i type="logical" name="LORBITALREAL"> F  </i>
  </separator>
  <separator name="miscellaneous" >
   <i type="int" name="IDIOT">     3</i>
   <i type="int" name="PHON_NSTRUCT">    -1</i>
   <i type="logical" name="LMUSIC"> F  </i>
   <v name="POMASS">     28.08500000     16.00000000</v>
   <v name="DARWINR">      0.00000000      0.00000000</v>
   <v name="DARWINV">      1.00000000      1.00000000</v>
   <i type="logical" name="LCORR"> T  </i>
  </separator>
  <i type="logical" name="GGA_COMPAT"> T  </i>
  <i type="logical" name="LBERRY"> F  </i>
  <i type="int" name="ICORELEVEL">     0</i>
  <i type="logical" name="LDAU"> F  </i>
  <i type="int" name="I_CONSTRAINED_M">     0</i>
  <separator name="electronic exchange-correlation" >
   <i type="string" name="GGA">--</i>
   <i type="int" name="VOSKOWN">     0</i>
   <i type="logical" name="LHFCALC"> F  </i>
   <i type="string" name="PRECFOCK"></i>
   <i type="logical" name="LSYMGRAD"> F  </i>
   <i type="logical" name="LHFONE"> F  </i>
   <i type="logical" name="LRHFCALC"> F  </i>
   <i type="logical" name="LTHOMAS"> F  </i>
   <i type="logical" name="LMODELHF"> F  </i>
   <i type="logical" name="LFOCKACE"> F  </i>
   <i name="ENCUT4O">     -1.00000000</i>
   <i type="int" name="EXXOEP">     0</i>
   <i type="int" name="FOURORBIT">     0</i>
   <i name="AEXX">      0.00000000</i>
   <i name="HFALPHA">      0.00000000</i>
   <i name="MCALPHA">      0.00000000</i>
   <i name="ALDAX">      1.00000000</i>
   <i name="AGGAX">      1.00000000</i>
   <i name="ALDAC">      1.00000000</i>
   <i name="AGGAC">      1.00000000</i>
   <i type="int" name="NKREDX">     1</i>
   <i type="int" name="NKREDY">     1</i>
   <i type="int" name="NKREDZ">     1</i>
   <i type="logical" name="SHIFTRED"> F  </i>
   <i type="logical" name="ODDONLY"> F  </i>
   <i type="logical" name="EVENONLY"> F  </i>
   <i type="int" name="LMAXFOCK">     0</i>
   <i type="int" name="NMAXFOCKAE">     0</i>
   <i type="logical" name="LFOCKAEDFT"> F  </i>
   <i name="HFSCREEN">      0.00000000</i>
   <i name="HFSCREENC">      0.00000000</i>
   <i type="int" name="NBANDSGWLOW">     0</i>
  </separator>
  <separator name="vdW DFT" >
   <i type="logical" name="LUSE_VDW"> F  </i>
   <i type="int" name="IVDW_NL">     1</i>
   <i type="logical" name="LSPIN_VDW"> F  </i>
   <i name="Zab_VDW">     -0.84910000</i>
   <i name="PARAM1">      0.12340000</i>
   <i name="PARAM2">      1.00000000</i>
   <i name="PARAM3">      0.00000000</i>
  </separator>
  <separator name="model GW" >
   <i type="int" name="MODEL_GW">     0</i>
   <i name="MODEL_EPS0">      7.36922501</i>
   <i name="MODEL_ALPHA">      1.00000000</i>
  </separator>
  <separator name="linear response parameters" >
   <i type="logical" name="LEPSILON"> T  </i>
   <i type="logical" name="LRPA"> F  </i>
   <i type="logical" name="LNABLA"> F  </i>
   <i type="logical" name="LVEL"> F  </i>
   <i name="CSHIFT">      0.10000000</i>
   <i name="OMEGAMAX">     -1.00000000</i>
   <i name="DEG_THRESHOLD">      0.00200000</i>
   <i name="RTIME">     -0.10000000</i>
   <i name="WPLASMAI">      0.00000000</i>
   <v name="DFIELD">      0.00000000      0.00000000      0.00000000</v>
   <v name="WPLASMA">      0.00000000      0.00000000      0.00000000      0.00000000      0.00000000      0.00000000      0.00000000      0.00000000      0.00000000</v>
  </separator>
  <separator name="orbital magnetization" >
   <i type="logical" name="NUCIND"> F  </i>
   <v name="MAGPOS">      0.00000000      0.00000000      0.00000000</v>
   <i type="logical" name="LNICSALL"> T  </i>
   <i type="logical" name="ORBITALMAG"> F  </i>
   <i type="logical" name="LMAGBLOCH"> F  </i>
   <i type="logical" name="LCHIMAG"> F  </i>
   <i type="logical" name="LGAUGE"> T  </i>
   <i type="int" name="MAGATOM">     0</i>
   <v name="MAGDIPOL">      0.00000000      0.00000000      0.00000000</v>
   <v name="AVECCONST">      0.00000000      0.00000000      0.00000000</v>
  </separator>
  <separator name="response functions" >
   <i type="logical" name="LALL_IN_ONE"> F  </i>
   <i type="int" name="IALL_IN_ONE">    -1</i>
   <i type="int" name="NBANDS_WAVE">    -1</i>
   <i type="logical" name="LFINITE_TEMPERATURE"> F  </i>
   <i type="logical" name="LADDER"> F  </i>
   <i type="logical" name="LRPAFORCE"> F  </i>
   <i type="logical" name="LFXC"> F  </i>
   <i type="logical" name="LHARTREE"> T  </i>
   <i type="int" name="IBSE">     0</i>
   <v type="int" name="KPOINT">    -1     0     0     0</v>
   <i type="logical" name="LTCTC"> F  </i>
   <i type="logical" name="LTCTE"> F  </i>
   <i type="logical" name="LTETE"> F  </i>
   <i type="logical" name="LTRIPLET"> F  </i>
   <i type="logical" name="LFXCEPS"> F  </i>
   <i type="logical" name="LFXHEG"> F  </i>
   <i type="int" name="NATURALO">     2</i>
   <i type="logical" name="LHOLEGF"> F  </i>
   <i type="logical" name="L2ORDER"> F  </i>
   <i type="logical" name="LDMP1"> F  </i>
   <i type="logical" name="LMP2LT"> F  </i>
   <i type="logical" name="LSMP2LT"> F  </i>
   <i type="logical" name="LGWLF"> F  </i>
   <i name="ENCUTGW">     -1.60000002</i>
   <i name="ENCUTGWSOFT">     -1.60000002</i>
   <i name="ENCUTLF">     -1.00000000</i>
   <i type="logical" name="LESF_SPLINES"> F  </i>
   <i type="int" name="LMAXMP2">    -1</i>
   <i name="SCISSOR">      0.00000000</i>
   <i type="int" name="NOMEGA">     0</i>
   <i type="int" name="NOMEGAR">     0</i>
   <i type="int" name="NBANDSGW">    -1</i>
   <i type="int" name="NBANDSO">    -1</i>
   <i type="int" name="NBANDSV">    -1</i>
   <i type="int" name="NELMGW">     1</i>
   <i type="int" name="NELMHF">     1</i>
   <i type="int" name="DIM">     3</i>
   <i type="int" name="IESPILON">     4</i>
   <i type="int" name="ANTIRES">     0</i>
   <i name="OMEGAMAX">    -30.00000000</i>
   <i name="OMEGAMIN">    -30.00000000</i>
   <i name="OMEGATL">   -200.00000000</i>
   <i type="int" name="OMEGAGRID">     0</i>
   <i name="CSHIFT">     -0.10000000</i>
   <i type="logical" name="LSELFENERGY"> F  </i>
   <i type="logical" name="LSPECTRAL"> F  </i>
   <i type="logical" name="LSPECTRALGW"> F  </i>
   <i type="logical" name="LSINGLES"> F  </i>
   <i type="logical" name="LFERMIGW"> F  </i>
   <i type="logical" name="ODDONLYGW"> F  </i>
   <i type="logical" name="EVENONLYGW"> F  </i>
   <i type="int" name="NKREDLFX">     1</i>
   <i type="int" name="NKREDLFY">     1</i>
   <i type="int" name="NKREDLFZ">     1</i>
   <i type="int" name="MAXMEM">  2800</i>
   <i type="int" name="TELESCOPE">     0</i>
   <i type="int" name="NTAUPAR">    -1</i>
   <i type="int" name="NOMEGAPAR">    -1</i>
   <i name="DAMP_NEWTON">      0.80000001</i>
   <i name="LAMBDA">      1.00000000</i>
  </separator>
  <separator name="External order field" >
   <i name="OFIELD_KAPPA">      0.00000000</i>
   <v name="OFIELD_K">      0.00000000      0.00000000      0.00000000</v>
   <i name="OFIELD_Q6_NEAR">      0.00000000</i>
   <i name="OFIELD_Q6_FAR">      0.00000000</i>
   <i name="OFIELD_A">      0.00000000</i>
  </separator>
  <separator name="optional k-points parameters" >
   <i type="int" name="KPOINTS_OPT_MODE">     1</i>
   <i type="logical" name="LKPOINTS_OPT"> F  </i>
  </separator>
 </parameters>
 <atominfo>
  <atoms>       9 </atoms>
  <types>       2 </types>
  <array name="atoms" >
   <dimension dim="1">ion</dimension>
   <field type="string">element</field>
   <field type="int">atomtype</field>
   <set>
    <rc><c>Si</c><c>   1</c></rc>
    <rc><c>Si</c><c>   1</c></rc>
    <rc><c>Si</c><c>   1</c></rc>
    <rc><c>O </c><c>   2</c></rc>
    <rc><c>O </c><c>   2</c></rc>
    <rc><c>O </c><c>   2</c></rc>
    <rc><c>O </c><c>   2</c></rc>
    <rc><c>O </c><c>   2</c></rc>
    <rc><c>O </c><c>   2</c></rc>
   </set>
  </array>
  <array name="atomtypes" >
   <dimension dim="1">type</dimension>
   <field type="int">atomspertype</field>
   <field type="string">element</field>
   <field>mass</field>
   <field>valence</field>
   <field type="string">pseudopotential</field>
   <set>
    <rc><c>   3</c><c>Si</c><c>     28.08500000</c><c>      4.00000000</c><c>  PAW_PBE Si 05Jan2001                  </c></rc>
    <rc><c>   6</c><c>O </c><c>     16.00000000</c><c>      6.00000000</c><c>  PAW_PBE O 08Apr2002                   </c></rc>
   </set>
  </array>
 </atominfo>
 <structure name="initialpos" >
  <crystal>
   <varray name="basis" >
    <v>       4.87342988       0.00000000       0.00000000 </v>
    <v>      -2.43671494       4.22051408       0.00000000 </v>
    <v>       0.00000000       0.00000000       5.37418982 </v>
   </varray>
   <i name="volume">    110.53837516 </i>
   <varray name="rec_basis" >
    <v>       0.20519429       0.11846898      -0.00000000 </v>
    <v>       0.00000000       0.23693796       0.00000000 </v>
    <v>       0.00000000      -0.00000000       0.18607456 </v>
   </varray>
  </crystal>
  <varray name="positions" >
   <v>       0.46465378       0.99994165       0.66664669 </v>
   <v>       0.99997083       0.46470471       0.33334332 </v>
   <v>       0.53536798       0.53533881       0.00000999 </v>
   <v>       0.13538577       0.72384523       0.55431838 </v>
   <v>       0.27608387       0.41166475       0.22088228 </v>
   <v>       0.58868921       0.86450303       0.88736566 </v>
   <v>       0.41147018       0.27588021       0.77927417 </v>
   <v>       0.86460514       0.58865403       0.11250473 </v>
   <v>       0.72377885       0.13547878       0.44565478 </v>
  </varray>
 </structure>
 <calculation>
  <scstep>
   <time name="dav">    1.12    1.12</time>
   <time name="total">    1.15    1.14</time>
   <energy>
    <i name="alphaZ">     71.30271804 </i>
    <i name="ewald">  -1930.19457043 </i>
    <i name="hartreedc">   -909.39679118 </i>
    <i name="XCdc">    141.70969107 </i>
    <i name="pawpsdc">   2343.66826019 </i>
    <i name="pawaedc">  -2301.68043871 </i>
    <i name="eentropy">     -0.00954391 </i>
    <i name="bandstr">    -14.50207631 </i>
    <i name="atom">   2903.33737771 </i>
    <i name="e_fr_energy">    304.23462647 </i>
    <i name="e_wo_entrp">    304.24417038 </i>
    <i name="e_0_energy">    304.23939842 </i>
   </energy>
  </scstep>
  <scstep>
   <time name="dav">    1.25    1.25</time>
   <time name="total">    1.25    1.26</time>
   <energy>
    <i name="e_fr_energy">    -61.45434041 </i>
    <i name="e_wo_entrp">    -61.45434041 </i>
    <i name="e_0_energy">    -61.45434041 </i>
   </energy>
  </scstep>
  <scstep>
   <time name="dav">    1.16    1.16</time>
   <time name="total">    1.16    1.16</time>
   <energy>
    <i name="e_fr_energy">    -80.17833269 </i>
    <i name="e_wo_entrp">    -80.17833269 </i>
    <i name="e_0_energy">    -80.17833269 </i>
   </energy>
  </scstep>
  <scstep>
   <time name="dav">    1.17    1.18</time>
   <time name="total">    1.17    1.18</time>
   <energy>
    <i name="e_fr_energy">    -80.41869155 </i>
    <i name="e_wo_entrp">    -80.41869155 </i>
    <i name="e_0_energy">    -80.41869155 </i>
   </energy>
  </scstep>
  <scstep>
   <time name="dav">    1.15    1.16</time>
   <time name="total">    1.33    1.31</time>
   <energy>
    <i name="e_fr_energy">    -80.42333279 </i>
    <i name="e_wo_entrp">    -80.42333279 </i>
    <i name="e_0_energy">    -80.42333279 </i>
   </energy>
  </scstep>
  <scstep>
   <time name="diag">    0.12    0.12</time>
   <time name="diis">    1.31    1.31</time>
   <time name="orth">    0.01    0.01</time>
   <time name="total">    1.64    1.59</time>
   <energy>
    <i name="e_fr_energy">    -70.67420621 </i>
    <i name="e_wo_entrp">    -70.67420621 </i>
    <i name="e_0_energy">    -70.67420621 </i>
   </energy>
  </scstep>
  <scstep>
   <time name="diag">    0.12    0.12</time>
   <time name="diis">    1.45    1.45</time>
   <time name="orth">    0.01    0.01</time>
   <time name="total">    1.78    1.74</time>
   <energy>
    <i name="e_fr_energy">    -70.97636402 </i>
    <i name="e_wo_entrp">    -70.97636402 </i>
    <i name="e_0_energy">    -70.97636402 </i>
   </energy>
  </scstep>
  <scstep>
   <time name="diag">    0.12    0.12</time>
   <time name="diis">    1.45    1.46</time>
   <time name="orth">    0.01    0.01</time>
   <time name="total">    2.01    1.77</time>
   <energy>
    <i name="e_fr_energy">    -70.96837209 </i>
    <i name="e_wo_entrp">    -70.96837209 </i>
    <i name="e_0_energy">    -70.96837209 </i>
   </energy>
  </scstep>
  <scstep>
   <time name="diag">    0.12    0.12</time>
   <time name="diis">    1.48    1.48</time>
   <time name="orth">    0.01    0.01</time>
   <time name="total">    1.81    1.77</time>
   <energy>
    <i name="e_fr_energy">    -70.98745974 </i>
    <i name="e_wo_entrp">    -70.98745974 </i>
    <i name="e_0_energy">    -70.98745974 </i>
   </energy>
  </scstep>
  <scstep>
   <time name="diag">    0.12    0.12</time>
   <time name="diis">    1.48    1.49</time>
   <time name="orth">    0.01    0.01</time>
   <time name="total">    1.82    1.77</time>
   <energy>
    <i name="e_fr_energy">    -70.99273294 </i>
    <i name="e_wo_entrp">    -70.99273294 </i>
    <i name="e_0_energy">    -70.99273294 </i>
   </energy>
  </scstep>
  <scstep>
   <time name="diag">    0.12    0.12</time>
   <time name="diis">    1.47    1.48</time>
   <time name="orth">    0.01    0.01</time>
   <time name="total">    1.81    1.77</time>
   <energy>
    <i name="e_fr_energy">    -70.98890650 </i>
    <i name="e_wo_entrp">    -70.98890650 </i>
    <i name="e_0_energy">    -70.98890650 </i>
   </energy>
  </scstep>
  <scstep>
   <time name="diag">    0.12    0.12</time>
   <time name="diis">    1.49    1.49</time>
   <time name="orth">    0.01    0.01</time>
   <time name="total">    1.82    1.78</time>
   <energy>
    <i name="e_fr_energy">    -70.98951283 </i>
    <i name="e_wo_entrp">    -70.98951283 </i>
    <i name="e_0_energy">    -70.98951283 </i>
   </energy>
  </scstep>
  <scstep>
   <time name="diag">    0.12    0.12</time>
   <time name="diis">    1.57    1.58</time>
   <time name="orth">    0.01    0.01</time>
   <time name="total">    1.91    1.86</time>
   <energy>
    <i name="e_fr_energy">    -70.98927999 </i>
    <i name="e_wo_entrp">    -70.98927999 </i>
    <i name="e_0_energy">    -70.98927999 </i>
   </energy>
  </scstep>
  <scstep>
   <time name="diag">    0.12    0.12</time>
   <time name="diis">    1.49    1.50</time>
   <time name="orth">    0.01    0.01</time>
   <time name="total">    1.83    1.78</time>
   <energy>
    <i name="e_fr_energy">    -70.98923421 </i>
    <i name="e_wo_entrp">    -70.98923421 </i>
    <i name="e_0_energy">    -70.98923421 </i>
   </energy>
  </scstep>
  <scstep>
   <time name="diag">    0.12    0.12</time>
   <time name="diis">    1.60    1.60</time>
   <time name="orth">    0.01    0.01</time>
   <time name="total">    1.93    1.89</time>
   <energy>
    <i name="e_fr_energy">    -70.98923013 </i>
    <i name="e_wo_entrp">    -70.98923013 </i>
    <i name="e_0_energy">    -70.98923013 </i>
   </energy>
  </scstep>
  <scstep>
   <time name="diag">    0.12    0.12</time>
   <time name="diis">    1.48    1.49</time>
   <time name="orth">    0.01    0.01</time>
   <time name="total">    1.82    1.77</time>
   <energy>
    <i name="e_fr_energy">    -70.98922907 </i>
    <i name="e_wo_entrp">    -70.98922907 </i>
    <i name="e_0_energy">    -70.98922907 </i>
   </energy>
  </scstep>
  <scstep>
   <time name="diag">    0.12    0.12</time>
   <time name="diis">    1.49    1.49</time>
   <time name="orth">    0.01    0.01</time>
   <time name="total">    1.82    1.78</time>
   <energy>
    <i name="e_fr_energy">    -70.98922932 </i>
    <i name="e_wo_entrp">    -70.98922932 </i>
    <i name="e_0_energy">    -70.98922932 </i>
   </energy>
  </scstep>
  <scstep>
   <time name="diag">    0.12    0.12</time>
   <time name="diis">    1.59    1.60</time>
   <time name="orth">    0.01    0.01</time>
   <time name="total">    1.94    1.89</time>
   <energy>
    <i name="e_fr_energy">    -70.98922954 </i>
    <i name="e_wo_entrp">    -70.98922954 </i>
    <i name="e_0_energy">    -70.98922954 </i>
   </energy>
  </scstep>
  <scstep>
   <time name="diag">    0.12    0.12</time>
   <time name="diis">    1.49    1.49</time>
   <time name="orth">    0.01    0.01</time>
   <time name="total">    1.83    1.78</time>
   <energy>
    <i name="e_fr_energy">    -70.98922951 </i>
    <i name="e_wo_entrp">    -70.98922951 </i>
    <i name="e_0_energy">    -70.98922951 </i>
   </energy>
  </scstep>
  <scstep>
   <time name="diag">    0.12    0.12</time>
   <time name="diis">    1.48    1.48</time>
   <time name="orth">    0.01    0.01</time>
   <time name="total">    1.82    1.77</time>
   <energy>
    <i name="e_fr_energy">    -70.98922954 </i>
    <i name="e_wo_entrp">    -70.98922954 </i>
    <i name="e_0_energy">    -70.98922954 </i>
   </energy>
  </scstep>
  <scstep>
   <time name="diag">    0.12    0.12</time>
   <time name="diis">    1.02    1.02</time>
   <time name="orth">    0.01    0.01</time>
   <time name="total">    1.36    1.30</time>
   <energy>
    <i name="e_fr_energy">    -70.98922951 </i>
    <i name="e_wo_entrp">    -70.98922951 </i>
    <i name="e_0_energy">    -70.98922951 </i>
   </energy>
  </scstep>
  <scstep>
   <time name="diag">    0.12    0.12</time>
   <time name="diis">    1.00    1.00</time>
   <time name="orth">    0.01    0.01</time>
   <time name="total">    1.16    1.14</time>
   <energy>
    <i name="alphaZ">     71.30271804 </i>
    <i name="ewald">  -1930.19457043 </i>
    <i name="hartreedc">  -1040.55692518 </i>
    <i name="XCdc">    150.68547050 </i>
    <i name="pawpsdc">   8045.46496782 </i>
    <i name="pawaedc">  -8005.84277715 </i>
    <i name="eentropy">     -0.00000000 </i>
    <i name="bandstr">   -265.18549082 </i>
    <i name="atom">   2903.33737771 </i>
    <i name="e_fr_energy">    -70.98922951 </i>
    <i name="e_wo_entrp">    -70.98922951 </i>
    <i name="e_0_energy">    -70.98922951 </i>
   </energy>
  </scstep>
  <structure>
   <crystal>
    <varray name="basis" >
     <v>       4.87342988       0.00000000       0.00000000 </v>
     <v>      -2.43671494       4.22051408       0.00000000 </v>
     <v>       0.00000000       0.00000000       5.37418982 </v>
    </varray>
    <i name="volume">    110.53837516 </i>
    <varray name="rec_basis" >
     <v>       0.20519429       0.11846898      -0.00000000 </v>
     <v>       0.00000000       0.23693796       0.00000000 </v>
     <v>       0.00000000      -0.00000000       0.18607456 </v>
    </varray>
   </crystal>
   <varray name="positions" >
    <v>       0.46465378       0.99994165       0.66664669 </v>
    <v>       0.99997083       0.46470471       0.33334332 </v>
    <v>       0.53536798       0.53533881       0.00000999 </v>
    <v>       0.13538577       0.72384523       0.55431838 </v>
    <v>       0.27608387       0.41166475       0.22088228 </v>
    <v>       0.58868921       0.86450303       0.88736566 </v>
    <v>       0.41147018       0.27588021       0.77927417 </v>
    <v>       0.86460514       0.58865403       0.11250473 </v>
    <v>       0.72377885       0.13547878       0.44565478 </v>
   </varray>
  </structure>
  <varray name="forces" >
   <v>       0.01817825       0.00032439       0.00008643 </v>
   <v>      -0.00882161       0.01566840      -0.00001685 </v>
   <v>      -0.00924134      -0.01574635      -0.00006530 </v>
   <v>      -0.27518679      -0.00069254       0.15335504 </v>
   <v>       0.13865572      -0.23823988       0.15293261 </v>
   <v>       0.13599940       0.23884809       0.15382155 </v>
   <v>      -0.27540873       0.00146123      -0.15340045 </v>
   <v>       0.13849540       0.23727564      -0.15345567 </v>
   <v>       0.13732970      -0.23889898      -0.15325735 </v>
  </varray>
  <varray name="stress" >
   <v>      71.96141927      -0.13856746       0.13996765 </v>
   <v>      -0.13856717      71.95982187      -0.00116771 </v>
   <v>       0.13996734      -0.00116779      73.61137256 </v>
  </varray>
  <energy>
   <i name="e_fr_energy">    -70.98922951 </i>
   <i name="e_wo_entrp">    -70.98922951 </i>
   <i name="e_0_energy">    -70.98922951 </i>
  </energy>
  <scstep>
   <time name="total">   21.51    4.33</time>
   <energy>
    <i name="e_fr_energy">   -182.48507677 </i>
    <i name="e_wo_entrp">   -182.48507677 </i>
    <i name="e_0_energy">   -182.48507677 </i>
   </energy>
  </scstep>
  <scstep>
   <time name="total">   21.06    3.87</time>
   <energy>
    <i name="e_fr_energy">   -172.60760565 </i>
    <i name="e_wo_entrp">   -172.60760565 </i>
    <i name="e_0_energy">   -172.60760565 </i>
   </energy>
  </scstep>
  <scstep>
   <time name="total">   21.10    3.87</time>
   <energy>
    <i name="e_fr_energy">   -172.75507153 </i>
    <i name="e_wo_entrp">   -172.75507153 </i>
    <i name="e_0_energy">   -172.75507153 </i>
   </energy>
  </scstep>
  <scstep>
   <time name="total">    1.41    1.42</time>
   <energy>
    <i name="e_fr_energy">   -172.76245037 </i>
    <i name="e_wo_entrp">   -172.76245037 </i>
    <i name="e_0_energy">   -172.76245037 </i>
   </energy>
  </scstep>
  <scstep>
   <time name="total">    1.43    1.44</time>
   <energy>
    <i name="e_fr_energy">   -172.76264284 </i>
    <i name="e_wo_entrp">   -172.76264284 </i>
    <i name="e_0_energy">   -172.76264284 </i>
   </energy>
  </scstep>
  <scstep>
   <time name="total">    1.46    1.47</time>
   <energy>
    <i name="e_fr_energy">   -172.76265331 </i>
    <i name="e_wo_entrp">   -172.76265331 </i>
    <i name="e_0_energy">   -172.76265331 </i>
   </energy>
  </scstep>
  <scstep>
   <time name="total">    1.48    1.49</time>
   <energy>
    <i name="e_fr_energy">   -172.76265107 </i>
    <i name="e_wo_entrp">   -172.76265107 </i>
    <i name="e_0_energy">   -172.76265107 </i>
   </energy>
  </scstep>
  <scstep>
   <time name="total">    1.47    1.48</time>
   <energy>
    <i name="e_fr_energy">   -172.76264797 </i>
    <i name="e_wo_entrp">   -172.76264797 </i>
    <i name="e_0_energy">   -172.76264797 </i>
   </energy>
  </scstep>
  <scstep>
   <time name="total">    1.49    1.49</time>
   <energy>
    <i name="e_fr_energy">   -172.76264622 </i>
    <i name="e_wo_entrp">   -172.76264622 </i>
    <i name="e_0_energy">   -172.76264622 </i>
   </energy>
  </scstep>
  <scstep>
   <time name="total">    1.49    1.49</time>
   <energy>
    <i name="e_fr_energy">   -172.76264319 </i>
    <i name="e_wo_entrp">   -172.76264319 </i>
    <i name="e_0_energy">   -172.76264319 </i>
   </energy>
  </scstep>
  <scstep>
   <time name="total">   21.42    4.32</time>
   <energy>
    <i name="e_fr_energy">   -182.31617224 </i>
    <i name="e_wo_entrp">   -182.31617224 </i>
    <i name="e_0_energy">   -182.31617224 </i>
   </energy>
  </scstep>
  <scstep>
   <time name="total">   20.97    3.82</time>
   <energy>
    <i name="e_fr_energy">   -172.61133505 </i>
    <i name="e_wo_entrp">   -172.61133505 </i>
    <i name="e_0_energy">   -172.61133505 </i>
   </energy>
  </scstep>
  <scstep>
   <time name="total">   21.00    3.86</time>
   <energy>
    <i name="e_fr_energy">   -172.75509588 </i>
    <i name="e_wo_entrp">   -172.75509588 </i>
    <i name="e_0_energy">   -172.75509588 </i>
   </energy>
  </scstep>
  <scstep>
   <time name="total">    1.40    1.41</time>
   <energy>
    <i name="e_fr_energy">   -172.76234557 </i>
    <i name="e_wo_entrp">   -172.76234557 </i>
    <i name="e_0_energy">   -172.76234557 </i>
   </energy>
  </scstep>
  <scstep>
   <time name="total">    1.42    1.43</time>
   <energy>
    <i name="e_fr_energy">   -172.76251934 </i>
    <i name="e_wo_entrp">   -172.76251934 </i>
    <i name="e_0_energy">   -172.76251934 </i>
   </energy>
  </scstep>
  <scstep>
   <time name="total">    1.46    1.47</time>
   <energy>
    <i name="e_fr_energy">   -172.76253506 </i>
    <i name="e_wo_entrp">   -172.76253506 </i>
    <i name="e_0_energy">   -172.76253506 </i>
   </energy>
  </scstep>
  <scstep>
   <time name="total">    1.47    1.48</time>
   <energy>
    <i name="e_fr_energy">   -172.76253726 </i>
    <i name="e_wo_entrp">   -172.76253726 </i>
    <i name="e_0_energy">   -172.76253726 </i>
   </energy>
  </scstep>
  <scstep>
   <time name="total">    1.49    1.50</time>
   <energy>
    <i name="e_fr_energy">   -172.76253734 </i>
    <i name="e_wo_entrp">   -172.76253734 </i>
    <i name="e_0_energy">   -172.76253734 </i>
   </energy>
  </scstep>
  <scstep>
   <time name="total">    1.48    1.48</time>
   <energy>
    <i name="e_fr_energy">   -172.76253742 </i>
    <i name="e_wo_entrp">   -172.76253742 </i>
    <i name="e_0_energy">   -172.76253742 </i>
   </energy>
  </scstep>
  <scstep>
   <time name="total">    1.50    1.51</time>
   <energy>
    <i name="e_fr_energy">   -172.76253742 </i>
    <i name="e_wo_entrp">   -172.76253742 </i>
    <i name="e_0_energy">   -172.76253742 </i>
   </energy>
  </scstep>
  <scstep>
   <time name="total">   21.42    4.33</time>
   <energy>
    <i name="e_fr_energy">   -182.14689018 </i>
    <i name="e_wo_entrp">   -182.14689018 </i>
    <i name="e_0_energy">   -182.14689018 </i>
   </energy>
  </scstep>
  <scstep>
   <time name="total">   21.15    3.84</time>
   <energy>
    <i name="e_fr_energy">   -172.55654137 </i>
    <i name="e_wo_entrp">   -172.55654137 </i>
    <i name="e_0_energy">   -172.55654137 </i>
   </energy>
  </scstep>
  <scstep>
   <time name="total">   21.17    3.86</time>
   <energy>
    <i name="e_fr_energy">   -172.70910033 </i>
    <i name="e_wo_entrp">   -172.70910033 </i>
    <i name="e_0_energy">   -172.70910033 </i>
   </energy>
  </scstep>
  <scstep>
   <time name="total">    1.39    1.40</time>
   <energy>
    <i name="e_fr_energy">   -172.71651323 </i>
    <i name="e_wo_entrp">   -172.71651323 </i>
    <i name="e_0_energy">   -172.71651323 </i>
   </energy>
  </scstep>
  <scstep>
   <time name="total">    1.44    1.45</time>
   <energy>
    <i name="e_fr_energy">   -172.71670292 </i>
    <i name="e_wo_entrp">   -172.71670292 </i>
    <i name="e_0_energy">   -172.71670292 </i>
   </energy>
  </scstep>
  <scstep>
   <time name="total">    1.43    1.43</time>
   <energy>
    <i name="e_fr_energy">   -172.71671516 </i>
    <i name="e_wo_entrp">   -172.71671516 </i>
    <i name="e_0_energy">   -172.71671516 </i>
   </energy>
  </scstep>
  <scstep>
   <time name="total">    1.47    1.47</time>
   <energy>
    <i name="e_fr_energy">   -172.71672027 </i>
    <i name="e_wo_entrp">   -172.71672027 </i>
    <i name="e_0_energy">   -172.71672027 </i>
   </energy>
  </scstep>
  <scstep>
   <time name="total">    1.46    1.47</time>
   <energy>
    <i name="e_fr_energy">   -172.71671834 </i>
    <i name="e_wo_entrp">   -172.71671834 </i>
    <i name="e_0_energy">   -172.71671834 </i>
   </energy>
  </scstep>
  <scstep>
   <time name="total">    1.48    1.49</time>
   <energy>
    <i name="e_fr_energy">   -172.71671866 </i>
    <i name="e_wo_entrp">   -172.71671866 </i>
    <i name="e_0_energy">   -172.71671866 </i>
   </energy>
  </scstep>
  <scstep>
   <time name="total">    1.48    1.48</time>
   <energy>
    <i name="e_fr_energy">   -172.71671626 </i>
    <i name="e_wo_entrp">   -172.71671626 </i>
    <i name="e_0_energy">   -172.71671626 </i>
   </energy>
  </scstep>
  <scstep>
   <time name="total">    2.35    1.83</time>
   <energy>
    <i name="e_fr_energy">     -0.48311397 </i>
    <i name="e_wo_entrp">     -0.48311397 </i>
    <i name="e_0_energy">     -0.48311397 </i>
   </energy>
  </scstep>
  <scstep>
   <time name="total">    2.40    1.83</time>
   <energy>
    <i name="e_fr_energy">     -0.48537195 </i>
    <i name="e_wo_entrp">     -0.48537195 </i>
    <i name="e_0_energy">     -0.48537195 </i>
   </energy>
  </scstep>
  <scstep>
   <time name="total">    2.37    1.85</time>
   <energy>
    <i name="e_fr_energy">     -0.48555898 </i>
    <i name="e_wo_entrp">     -0.48555898 </i>
    <i name="e_0_energy">     -0.48555898 </i>
   </energy>
  </scstep>
  <scstep>
   <time name="total">    2.39    1.89</time>
   <energy>
    <i name="e_fr_energy">     -0.48556754 </i>
    <i name="e_wo_entrp">     -0.48556754 </i>
    <i name="e_0_energy">     -0.48556754 </i>
   </energy>
  </scstep>
  <scstep>
   <time name="total">    2.39    1.87</time>
   <energy>
    <i name="e_fr_energy">     -0.48556784 </i>
    <i name="e_wo_entrp">     -0.48556784 </i>
    <i name="e_0_energy">     -0.48556784 </i>
   </energy>
  </scstep>
  <scstep>
   <time name="total">    2.31    1.79</time>
   <energy>
    <i name="e_fr_energy">     -0.48556786 </i>
    <i name="e_wo_entrp">     -0.48556786 </i>
    <i name="e_0_energy">     -0.48556786 </i>
   </energy>
  </scstep>
  <scstep>
   <time name="total">    2.26    1.74</time>
   <energy>
    <i name="e_fr_energy">     -0.48556787 </i>
    <i name="e_wo_entrp">     -0.48556787 </i>
    <i name="e_0_energy">     -0.48556787 </i>
   </energy>
  </scstep>
  <scstep>
   <time name="total">    2.23    1.71</time>
   <energy>
    <i name="e_fr_energy">     -0.48556787 </i>
    <i name="e_wo_entrp">     -0.48556787 </i>
    <i name="e_0_energy">     -0.48556787 </i>
   </energy>
  </scstep>
  <scstep>
   <time name="total">    2.28    1.76</time>
   <energy>
    <i name="e_fr_energy">     -0.48556787 </i>
    <i name="e_wo_entrp">     -0.48556787 </i>
    <i name="e_0_energy">     -0.48556787 </i>
   </energy>
  </scstep>
  <scstep>
   <time name="total">    2.36    1.83</time>
   <energy>
    <i name="e_fr_energy">     -0.48315529 </i>
    <i name="e_wo_entrp">     -0.48315529 </i>
    <i name="e_0_energy">     -0.48315529 </i>
   </energy>
  </scstep>
  <scstep>
   <time name="total">    2.37    1.84</time>
   <energy>
    <i name="e_fr_energy">     -0.48537004 </i>
    <i name="e_wo_entrp">     -0.48537004 </i>
    <i name="e_0_energy">     -0.48537004 </i>
   </energy>
  </scstep>
  <scstep>
   <time name="total">    2.38    1.85</time>
   <energy>
    <i name="e_fr_energy">     -0.48555891 </i>
    <i name="e_wo_entrp">     -0.48555891 </i>
    <i name="e_0_energy">     -0.48555891 </i>
   </energy>
  </scstep>
  <scstep>
   <time name="total">    2.38    1.85</time>
   <energy>
    <i name="e_fr_energy">     -0.48556761 </i>
    <i name="e_wo_entrp">     -0.48556761 </i>
    <i name="e_0_energy">     -0.48556761 </i>
   </energy>
  </scstep>
  <scstep>
   <time name="total">    2.37    1.85</time>
   <energy>
    <i name="e_fr_energy">     -0.48556791 </i>
    <i name="e_wo_entrp">     -0.48556791 </i>
    <i name="e_0_energy">     -0.48556791 </i>
   </energy>
  </scstep>
  <scstep>
   <time name="total">    2.31    1.78</time>
   <energy>
    <i name="e_fr_energy">     -0.48556793 </i>
    <i name="e_wo_entrp">     -0.48556793 </i>
    <i name="e_0_energy">     -0.48556793 </i>
   </energy>
  </scstep>
  <scstep>
   <time name="total">    2.23    1.71</time>
   <energy>
    <i name="e_fr_energy">     -0.48556793 </i>
    <i name="e_wo_entrp">     -0.48556793 </i>
    <i name="e_0_energy">     -0.48556793 </i>
   </energy>
  </scstep>
  <scstep>
   <time name="total">    2.23    1.70</time>
   <energy>
    <i name="e_fr_energy">     -0.48556793 </i>
    <i name="e_wo_entrp">     -0.48556793 </i>
    <i name="e_0_energy">     -0.48556793 </i>
   </energy>
  </scstep>
  <scstep>
   <time name="total">    2.21    1.69</time>
   <energy>
    <i name="e_fr_energy">     -0.48556793 </i>
    <i name="e_wo_entrp">     -0.48556793 </i>
    <i name="e_0_energy">     -0.48556793 </i>
   </energy>
  </scstep>
  <scstep>
   <time name="total">    2.35    1.83</time>
   <energy>
    <i name="e_fr_energy">     -0.48761119 </i>
    <i name="e_wo_entrp">     -0.48761119 </i>
    <i name="e_0_energy">     -0.48761119 </i>
   </energy>
  </scstep>
  <scstep>
   <time name="total">    2.33    1.81</time>
   <energy>
    <i name="e_fr_energy">     -0.48965546 </i>
    <i name="e_wo_entrp">     -0.48965546 </i>
    <i name="e_0_energy">     -0.48965546 </i>
   </energy>
  </scstep>
  <scstep>
   <time name="total">    2.37    1.84</time>
   <energy>
    <i name="e_fr_energy">     -0.48984645 </i>
    <i name="e_wo_entrp">     -0.48984645 </i>
    <i name="e_0_energy">     -0.48984645 </i>
   </energy>
  </scstep>
  <scstep>
   <time name="total">    2.39    1.86</time>
   <energy>
    <i name="e_fr_energy">     -0.48985537 </i>
    <i name="e_wo_entrp">     -0.48985537 </i>
    <i name="e_0_energy">     -0.48985537 </i>
   </energy>
  </scstep>
  <scstep>
   <time name="total">    2.44    1.90</time>
   <energy>
    <i name="e_fr_energy">     -0.48985568 </i>
    <i name="e_wo_entrp">     -0.48985568 </i>
    <i name="e_0_energy">     -0.48985568 </i>
   </energy>
  </scstep>
  <scstep>
   <time name="total">    2.31    1.78</time>
   <energy>
    <i name="e_fr_energy">     -0.48985570 </i>
    <i name="e_wo_entrp">     -0.48985570 </i>
    <i name="e_0_energy">     -0.48985570 </i>
   </energy>
  </scstep>
  <scstep>
   <time name="total">    2.26    1.73</time>
   <energy>
    <i name="e_fr_energy">     -0.48985570 </i>
    <i name="e_wo_entrp">     -0.48985570 </i>
    <i name="e_0_energy">     -0.48985570 </i>
   </energy>
  </scstep>
  <scstep>
   <time name="total">    2.24    1.70</time>
   <energy>
    <i name="e_fr_energy">     -0.48985570 </i>
    <i name="e_wo_entrp">     -0.48985570 </i>
    <i name="e_0_energy">     -0.48985570 </i>
   </energy>
  </scstep>
  <scstep>
   <time name="total">    2.26    1.72</time>
   <energy>
    <i name="e_fr_energy">     -0.48985570 </i>
    <i name="e_wo_entrp">     -0.48985570 </i>
    <i name="e_0_energy">     -0.48985570 </i>
   </energy>
  </scstep>
  <scstep>
   <time name="total">    2.22    1.69</time>
   <energy>
    <i name="e_fr_energy">     -0.48985570 </i>
    <i name="e_wo_entrp">     -0.48985570 </i>
    <i name="e_0_energy">     -0.48985570 </i>
   </energy>
  </scstep>
  <varray name="dielectric_ipa" >
   <v>       2.58976296       0.00021146      -0.00009367 </v>
   <v>       0.00021485       2.58975850      -0.00000249 </v>
   <v>      -0.00009422      -0.00000362       2.60380338 </v>
  </varray>
  <kpoints>
   <generation param="Gamma">
    <v type="int" name="divisions">       4        4        4 </v>
    <v name="usershift">      0.00000000       0.00000000       0.00000000 </v>
    <v name="genvec1">      0.25000000       0.00000000       0.00000000 </v>
    <v name="genvec2">      0.00000000       0.25000000       0.00000000 </v>
    <v name="genvec3">      0.00000000       0.00000000       0.25000000 </v>
    <v name="shift">      0.00000000       0.00000000       0.00000000 </v>
   </generation>
   <varray name="kpointlist" >
    <v>       0.00000000       0.00000000       0.00000000 </v>
    <v>       0.25000000       0.00000000       0.00000000 </v>
    <v>       0.00000000       0.25000000       0.00000000 </v>
    <v>      -0.25000000       0.25000000       0.00000000 </v>
    <v>       0.50000000       0.00000000       0.00000000 </v>
    <v>       0.00000000       0.50000000       0.00000000 </v>
    <v>       0.50000000       0.50000000       0.00000000 </v>
    <v>       0.25000000       0.25000000       0.00000000 </v>
    <v>      -0.25000000       0.50000000       0.00000000 </v>
    <v>       0.50000000       0.25000000       0.00000000 </v>
    <v>       0.00000000       0.00000000       0.25000000 </v>
    <v>       0.25000000       0.00000000       0.25000000 </v>
    <v>       0.00000000       0.25000000       0.25000000 </v>
    <v>      -0.25000000       0.25000000       0.25000000 </v>
    <v>      -0.25000000       0.00000000       0.25000000 </v>
    <v>       0.00000000      -0.25000000       0.25000000 </v>
    <v>       0.25000000      -0.25000000       0.25000000 </v>
    <v>       0.50000000       0.00000000       0.25000000 </v>
    <v>       0.00000000       0.50000000       0.25000000 </v>
    <v>       0.50000000       0.50000000       0.25000000 </v>
    <v>       0.25000000       0.25000000       0.25000000 </v>
    <v>      -0.25000000       0.50000000       0.25000000 </v>
    <v>       0.50000000       0.25000000       0.25000000 </v>
    <v>      -0.25000000      -0.25000000       0.25000000 </v>
    <v>       0.25000000       0.50000000       0.25000000 </v>
    <v>       0.50000000      -0.25000000       0.25000000 </v>
    <v>       0.00000000       0.00000000       0.50000000 </v>
    <v>       0.25000000       0.00000000       0.50000000 </v>
    <v>       0.00000000       0.25000000       0.50000000 </v>
    <v>      -0.25000000       0.25000000       0.50000000 </v>
    <v>       0.50000000       0.00000000       0.50000000 </v>
    <v>       0.00000000       0.50000000       0.50000000 </v>
    <v>       0.50000000       0.50000000       0.50000000 </v>
    <v>       0.25000000       0.25000000       0.50000000 </v>
    <v>      -0.25000000       0.50000000       0.50000000 </v>
    <v>       0.50000000       0.25000000       0.50000000 </v>
   </varray>
   <varray name="weights" >
    <v>       0.01562500 </v>
    <v>       0.03125000 </v>
    <v>       0.03125000 </v>
    <v>       0.03125000 </v>
    <v>       0.01562500 </v>
    <v>       0.01562500 </v>
    <v>       0.01562500 </v>
    <v>       0.03125000 </v>
    <v>       0.03125000 </v>
    <v>       0.03125000 </v>
    <v>       0.03125000 </v>
    <v>       0.03125000 </v>
    <v>       0.03125000 </v>
    <v>       0.03125000 </v>
    <v>       0.03125000 </v>
    <v>       0.03125000 </v>
    <v>       0.03125000 </v>
    <v>       0.03125000 </v>
    <v>       0.03125000 </v>
    <v>       0.03125000 </v>
    <v>       0.03125000 </v>
    <v>       0.03125000 </v>
    <v>       0.03125000 </v>
    <v>       0.03125000 </v>
    <v>       0.03125000 </v>
    <v>       0.03125000 </v>
    <v>       0.01562500 </v>
    <v>       0.03125000 </v>
    <v>       0.03125000 </v>
    <v>       0.03125000 </v>
    <v>       0.01562500 </v>
    <v>       0.01562500 </v>
    <v>       0.01562500 </v>
    <v>       0.03125000 </v>
    <v>       0.03125000 </v>
    <v>       0.03125000 </v>
   </varray>
  </kpoints>
  <scstep>
   <time name="total">    2.38    1.84</time>
   <energy>
    <i name="e_fr_energy">     -0.48311397 </i>
    <i name="e_wo_entrp">     -0.48311397 </i>
    <i name="e_0_energy">     -0.48311397 </i>
   </energy>
  </scstep>
  <scstep>
   <time name="total">    2.55    1.95</time>
   <energy>
    <i name="e_fr_energy">     -0.48537195 </i>
    <i name="e_wo_entrp">     -0.48537195 </i>
    <i name="e_0_energy">     -0.48537195 </i>
   </energy>
  </scstep>
  <scstep>
   <time name="total">    2.49    1.92</time>
   <energy>
    <i name="e_fr_energy">     -0.46516211 </i>
    <i name="e_wo_entrp">     -0.46516211 </i>
    <i name="e_0_energy">     -0.46516211 </i>
   </energy>
  </scstep>
  <scstep>
   <time name="total">    2.48    1.93</time>
   <energy>
    <i name="e_fr_energy">     -0.47597395 </i>
    <i name="e_wo_entrp">     -0.47597395 </i>
    <i name="e_0_energy">     -0.47597395 </i>
   </energy>
  </scstep>
  <scstep>
   <time name="total">    2.45    1.90</time>
   <energy>
    <i name="e_fr_energy">     -0.49371919 </i>
    <i name="e_wo_entrp">     -0.49371919 </i>
    <i name="e_0_energy">     -0.49371919 </i>
   </energy>
  </scstep>
  <scstep>
   <time name="total">    2.43    1.88</time>
   <energy>
    <i name="e_fr_energy">     -0.49664475 </i>
    <i name="e_wo_entrp">     -0.49664475 </i>
    <i name="e_0_energy">     -0.49664475 </i>
   </energy>
  </scstep>
  <scstep>
   <time name="total">    2.48    1.93</time>
   <energy>
    <i name="e_fr_energy">     -0.49688528 </i>
    <i name="e_wo_entrp">     -0.49688528 </i>
    <i name="e_0_energy">     -0.49688528 </i>
   </energy>
  </scstep>
  <scstep>
   <time name="total">    2.49    1.93</time>
   <energy>
    <i name="e_fr_energy">     -0.49711585 </i>
    <i name="e_wo_entrp">     -0.49711585 </i>
    <i name="e_0_energy">     -0.49711585 </i>
   </energy>
  </scstep>
  <scstep>
   <time name="total">    2.49    1.95</time>
   <energy>
    <i name="e_fr_energy">     -0.49717947 </i>
    <i name="e_wo_entrp">     -0.49717947 </i>
    <i name="e_0_energy">     -0.49717947 </i>
   </energy>
  </scstep>
  <scstep>
   <time name="total">    2.54    1.99</time>
   <energy>
    <i name="e_fr_energy">     -0.49717387 </i>
    <i name="e_wo_entrp">     -0.49717387 </i>
    <i name="e_0_energy">     -0.49717387 </i>
   </energy>
  </scstep>
  <scstep>
   <time name="total">    2.56    2.00</time>
   <energy>
    <i name="e_fr_energy">     -0.49717511 </i>
    <i name="e_wo_entrp">     -0.49717511 </i>
    <i name="e_0_energy">     -0.49717511 </i>
   </energy>
  </scstep>
  <scstep>
   <time name="total">    2.59    2.00</time>
   <energy>
    <i name="e_fr_energy">     -0.49717544 </i>
    <i name="e_wo_entrp">     -0.49717544 </i>
    <i name="e_0_energy">     -0.49717544 </i>
   </energy>
  </scstep>
  <scstep>
   <time name="total">    2.53    1.98</time>
   <energy>
    <i name="e_fr_energy">     -0.49717524 </i>
    <i name="e_wo_entrp">     -0.49717524 </i>
    <i name="e_0_energy">     -0.49717524 </i>
   </energy>
  </scstep>
  <scstep>
   <time name="total">    2.58    2.01</time>
   <energy>
    <i name="e_fr_energy">     -0.49717524 </i>
    <i name="e_wo_entrp">     -0.49717524 </i>
    <i name="e_0_energy">     -0.49717524 </i>
   </energy>
  </scstep>
  <kpoints>
   <generation param="Gamma">
    <v type="int" name="divisions">       4        4        4 </v>
    <v name="usershift">      0.00000000       0.00000000       0.00000000 </v>
    <v name="genvec1">      0.25000000       0.00000000       0.00000000 </v>
    <v name="genvec2">      0.00000000       0.25000000       0.00000000 </v>
    <v name="genvec3">      0.00000000       0.00000000       0.25000000 </v>
    <v name="shift">      0.00000000       0.00000000       0.00000000 </v>
   </generation>
   <varray name="kpointlist" >
    <v>       0.00000000       0.00000000       0.00000000 </v>
    <v>       0.25000000       0.00000000       0.00000000 </v>
    <v>       0.00000000       0.25000000       0.00000000 </v>
    <v>      -0.25000000       0.25000000       0.00000000 </v>
    <v>       0.50000000       0.00000000       0.00000000 </v>
    <v>       0.00000000       0.50000000       0.00000000 </v>
    <v>       0.50000000       0.50000000       0.00000000 </v>
    <v>       0.25000000       0.25000000       0.00000000 </v>
    <v>      -0.25000000       0.50000000       0.00000000 </v>
    <v>       0.50000000       0.25000000       0.00000000 </v>
    <v>       0.00000000       0.00000000       0.25000000 </v>
    <v>       0.25000000       0.00000000       0.25000000 </v>
    <v>       0.00000000       0.25000000       0.25000000 </v>
    <v>      -0.25000000       0.25000000       0.25000000 </v>
    <v>      -0.25000000       0.00000000       0.25000000 </v>
    <v>       0.00000000      -0.25000000       0.25000000 </v>
    <v>       0.25000000      -0.25000000       0.25000000 </v>
    <v>       0.50000000       0.00000000       0.25000000 </v>
    <v>       0.00000000       0.50000000       0.25000000 </v>
    <v>       0.50000000       0.50000000       0.25000000 </v>
    <v>       0.25000000       0.25000000       0.25000000 </v>
    <v>      -0.25000000       0.50000000       0.25000000 </v>
    <v>       0.50000000       0.25000000       0.25000000 </v>
    <v>      -0.25000000      -0.25000000       0.25000000 </v>
    <v>       0.25000000       0.50000000       0.25000000 </v>
    <v>       0.50000000      -0.25000000       0.25000000 </v>
    <v>       0.00000000       0.00000000       0.50000000 </v>
    <v>       0.25000000       0.00000000       0.50000000 </v>
    <v>       0.00000000       0.25000000       0.50000000 </v>
    <v>      -0.25000000       0.25000000       0.50000000 </v>
    <v>       0.50000000       0.00000000       0.50000000 </v>
    <v>       0.00000000       0.50000000       0.50000000 </v>
    <v>       0.50000000       0.50000000       0.50000000 </v>
    <v>       0.25000000       0.25000000       0.50000000 </v>
    <v>      -0.25000000       0.50000000       0.50000000 </v>
    <v>       0.50000000       0.25000000       0.50000000 </v>
   </varray>
   <varray name="weights" >
    <v>       0.01562500 </v>
    <v>       0.03125000 </v>
    <v>       0.03125000 </v>
    <v>       0.03125000 </v>
    <v>       0.01562500 </v>
    <v>       0.01562500 </v>
    <v>       0.01562500 </v>
    <v>       0.03125000 </v>
    <v>       0.03125000 </v>
    <v>       0.03125000 </v>
    <v>       0.03125000 </v>
    <v>       0.03125000 </v>
    <v>       0.03125000 </v>
    <v>       0.03125000 </v>
    <v>       0.03125000 </v>
    <v>       0.03125000 </v>
    <v>       0.03125000 </v>
    <v>       0.03125000 </v>
    <v>       0.03125000 </v>
    <v>       0.03125000 </v>
    <v>       0.03125000 </v>
    <v>       0.03125000 </v>
    <v>       0.03125000 </v>
    <v>       0.03125000 </v>
    <v>       0.03125000 </v>
    <v>       0.03125000 </v>
    <v>       0.01562500 </v>
    <v>       0.03125000 </v>
    <v>       0.03125000 </v>
    <v>       0.03125000 </v>
    <v>       0.01562500 </v>
    <v>       0.01562500 </v>
    <v>       0.01562500 </v>
    <v>       0.03125000 </v>
    <v>       0.03125000 </v>
    <v>       0.03125000 </v>
   </varray>
  </kpoints>
  <scstep>
   <time name="total">    2.43    1.88</time>
   <energy>
    <i name="e_fr_energy">     -0.48315529 </i>
    <i name="e_wo_entrp">     -0.48315529 </i>
    <i name="e_0_energy">     -0.48315529 </i>
   </energy>
  </scstep>
  <scstep>
   <time name="total">    2.49    1.94</time>
   <energy>
    <i name="e_fr_energy">     -0.48537004 </i>
    <i name="e_wo_entrp">     -0.48537004 </i>
    <i name="e_0_energy">     -0.48537004 </i>
   </energy>
  </scstep>
  <scstep>
   <time name="total">    2.53    1.94</time>
   <energy>
    <i name="e_fr_energy">     -0.46517660 </i>
    <i name="e_wo_entrp">     -0.46517660 </i>
    <i name="e_0_energy">     -0.46517660 </i>
   </energy>
  </scstep>
  <scstep>
   <time name="total">    2.47    1.92</time>
   <energy>
    <i name="e_fr_energy">     -0.47602348 </i>
    <i name="e_wo_entrp">     -0.47602348 </i>
    <i name="e_0_energy">     -0.47602348 </i>
   </energy>
  </scstep>
  <scstep>
   <time name="total">    2.49    1.92</time>
   <energy>
    <i name="e_fr_energy">     -0.49375890 </i>
    <i name="e_wo_entrp">     -0.49375890 </i>
    <i name="e_0_energy">     -0.49375890 </i>
   </energy>
  </scstep>
  <scstep>
   <time name="total">    2.44    1.89</time>
   <energy>
    <i name="e_fr_energy">     -0.49667549 </i>
    <i name="e_wo_entrp">     -0.49667549 </i>
    <i name="e_0_energy">     -0.49667549 </i>
   </energy>
  </scstep>
  <scstep>
   <time name="total">    2.48    1.93</time>
   <energy>
    <i name="e_fr_energy">     -0.49691826 </i>
    <i name="e_wo_entrp">     -0.49691826 </i>
    <i name="e_0_energy">     -0.49691826 </i>
   </energy>
  </scstep>
  <scstep>
   <time name="total">    2.48    1.94</time>
   <energy>
    <i name="e_fr_energy">     -0.49714850 </i>
    <i name="e_wo_entrp">     -0.49714850 </i>
    <i name="e_0_energy">     -0.49714850 </i>
   </energy>
  </scstep>
  <scstep>
   <time name="total">    2.49    1.94</time>
   <energy>
    <i name="e_fr_energy">     -0.49721426 </i>
    <i name="e_wo_entrp">     -0.49721426 </i>
    <i name="e_0_energy">     -0.49721426 </i>
   </energy>
  </scstep>
  <scstep>
   <time name="total">    2.55    1.97</time>
   <energy>
    <i name="e_fr_energy">     -0.49720865 </i>
    <i name="e_wo_entrp">     -0.49720865 </i>
    <i name="e_0_energy">     -0.49720865 </i>
   </energy>
  </scstep>
  <scstep>
   <time name="total">    2.58    2.02</time>
   <energy>
    <i name="e_fr_energy">     -0.49720988 </i>
    <i name="e_wo_entrp">     -0.49720988 </i>
    <i name="e_0_energy">     -0.49720988 </i>
   </energy>
  </scstep>
  <scstep>
   <time name="total">    2.57    1.96</time>
   <energy>
    <i name="e_fr_energy">     -0.49720959 </i>
    <i name="e_wo_entrp">     -0.49720959 </i>
    <i name="e_0_energy">     -0.49720959 </i>
   </energy>
  </scstep>
  <scstep>
   <time name="total">    2.49    1.94</time>
   <energy>
    <i name="e_fr_energy">     -0.49720988 </i>
    <i name="e_wo_entrp">     -0.49720988 </i>
    <i name="e_0_energy">     -0.49720988 </i>
   </energy>
  </scstep>
  <scstep>
   <time name="total">    2.54    1.99</time>
   <energy>
    <i name="e_fr_energy">     -0.49720965 </i>
    <i name="e_wo_entrp">     -0.49720965 </i>
    <i name="e_0_energy">     -0.49720965 </i>
   </energy>
  </scstep>
  <kpoints>
   <generation param="Gamma">
    <v type="int" name="divisions">       4        4        4 </v>
    <v name="usershift">      0.00000000       0.00000000       0.00000000 </v>
    <v name="genvec1">      0.25000000       0.00000000       0.00000000 </v>
    <v name="genvec2">      0.00000000       0.25000000       0.00000000 </v>
    <v name="genvec3">      0.00000000       0.00000000       0.25000000 </v>
    <v name="shift">      0.00000000       0.00000000       0.00000000 </v>
   </generation>
   <varray name="kpointlist" >
    <v>       0.00000000       0.00000000       0.00000000 </v>
    <v>       0.25000000       0.00000000       0.00000000 </v>
    <v>       0.00000000       0.25000000       0.00000000 </v>
    <v>      -0.25000000       0.25000000       0.00000000 </v>
    <v>       0.50000000       0.00000000       0.00000000 </v>
    <v>       0.00000000       0.50000000       0.00000000 </v>
    <v>       0.50000000       0.50000000       0.00000000 </v>
    <v>       0.25000000       0.25000000       0.00000000 </v>
    <v>      -0.25000000       0.50000000       0.00000000 </v>
    <v>       0.50000000       0.25000000       0.00000000 </v>
    <v>       0.00000000       0.00000000       0.25000000 </v>
    <v>       0.25000000       0.00000000       0.25000000 </v>
    <v>       0.00000000       0.25000000       0.25000000 </v>
    <v>      -0.25000000       0.25000000       0.25000000 </v>
    <v>      -0.25000000       0.00000000       0.25000000 </v>
    <v>       0.00000000      -0.25000000       0.25000000 </v>
    <v>       0.25000000      -0.25000000       0.25000000 </v>
    <v>       0.50000000       0.00000000       0.25000000 </v>
    <v>       0.00000000       0.50000000       0.25000000 </v>
    <v>       0.50000000       0.50000000       0.25000000 </v>
    <v>       0.25000000       0.25000000       0.25000000 </v>
    <v>      -0.25000000       0.50000000       0.25000000 </v>
    <v>       0.50000000       0.25000000       0.25000000 </v>
    <v>      -0.25000000      -0.25000000       0.25000000 </v>
    <v>       0.25000000       0.50000000       0.25000000 </v>
    <v>       0.50000000      -0.25000000       0.25000000 </v>
    <v>       0.00000000       0.00000000       0.50000000 </v>
    <v>       0.25000000       0.00000000       0.50000000 </v>
    <v>       0.00000000       0.25000000       0.50000000 </v>
    <v>      -0.25000000       0.25000000       0.50000000 </v>
    <v>       0.50000000       0.00000000       0.50000000 </v>
    <v>       0.00000000       0.50000000       0.50000000 </v>
    <v>       0.50000000       0.50000000       0.50000000 </v>
    <v>       0.25000000       0.25000000       0.50000000 </v>
    <v>      -0.25000000       0.50000000       0.50000000 </v>
    <v>       0.50000000       0.25000000       0.50000000 </v>
   </varray>
   <varray name="weights" >
    <v>       0.01562500 </v>
    <v>       0.03125000 </v>
    <v>       0.03125000 </v>
    <v>       0.03125000 </v>
    <v>       0.01562500 </v>
    <v>       0.01562500 </v>
    <v>       0.01562500 </v>
    <v>       0.03125000 </v>
    <v>       0.03125000 </v>
    <v>       0.03125000 </v>
    <v>       0.03125000 </v>
    <v>       0.03125000 </v>
    <v>       0.03125000 </v>
    <v>       0.03125000 </v>
    <v>       0.03125000 </v>
    <v>       0.03125000 </v>
    <v>       0.03125000 </v>
    <v>       0.03125000 </v>
    <v>       0.03125000 </v>
    <v>       0.03125000 </v>
    <v>       0.03125000 </v>
    <v>       0.03125000 </v>
    <v>       0.03125000 </v>
    <v>       0.03125000 </v>
    <v>       0.03125000 </v>
    <v>       0.03125000 </v>
    <v>       0.01562500 </v>
    <v>       0.03125000 </v>
    <v>       0.03125000 </v>
    <v>       0.03125000 </v>
    <v>       0.01562500 </v>
    <v>       0.01562500 </v>
    <v>       0.01562500 </v>
    <v>       0.03125000 </v>
    <v>       0.03125000 </v>
    <v>       0.03125000 </v>
   </varray>
  </kpoints>
  <scstep>
   <time name="total">    2.47    1.87</time>
   <energy>
    <i name="e_fr_energy">     -0.48761119 </i>
    <i name="e_wo_entrp">     -0.48761119 </i>
    <i name="e_0_energy">     -0.48761119 </i>
   </energy>
  </scstep>
  <scstep>
   <time name="total">    2.45    1.91</time>
   <energy>
    <i name="e_fr_energy">     -0.48965546 </i>
    <i name="e_wo_entrp">     -0.48965546 </i>
    <i name="e_0_energy">     -0.48965546 </i>
   </energy>
  </scstep>
  <scstep>
   <time name="total">    2.45    1.90</time>
   <energy>
    <i name="e_fr_energy">     -0.47439490 </i>
    <i name="e_wo_entrp">     -0.47439490 </i>
    <i name="e_0_energy">     -0.47439490 </i>
   </energy>
  </scstep>
  <scstep>
   <time name="total">    2.46    1.91</time>
   <energy>
    <i name="e_fr_energy">     -0.48763644 </i>
    <i name="e_wo_entrp">     -0.48763644 </i>
    <i name="e_0_energy">     -0.48763644 </i>
   </energy>
  </scstep>
  <scstep>
   <time name="total">    2.46    1.90</time>
   <energy>
    <i name="e_fr_energy">     -0.50387933 </i>
    <i name="e_wo_entrp">     -0.50387933 </i>
    <i name="e_0_energy">     -0.50387933 </i>
   </energy>
  </scstep>
  <scstep>
   <time name="total">    2.47    1.89</time>
   <energy>
    <i name="e_fr_energy">     -0.50671719 </i>
    <i name="e_wo_entrp">     -0.50671719 </i>
    <i name="e_0_energy">     -0.50671719 </i>
   </energy>
  </scstep>
  <scstep>
   <time name="total">    2.51    1.94</time>
   <energy>
    <i name="e_fr_energy">     -0.50696177 </i>
    <i name="e_wo_entrp">     -0.50696177 </i>
    <i name="e_0_energy">     -0.50696177 </i>
   </energy>
  </scstep>
  <scstep>
   <time name="total">    2.53    1.94</time>
   <energy>
    <i name="e_fr_energy">     -0.50722736 </i>
    <i name="e_wo_entrp">     -0.50722736 </i>
    <i name="e_0_energy">     -0.50722736 </i>
   </energy>
  </scstep>
  <scstep>
   <time name="total">    2.52    1.95</time>
   <energy>
    <i name="e_fr_energy">     -0.50724988 </i>
    <i name="e_wo_entrp">     -0.50724988 </i>
    <i name="e_0_energy">     -0.50724988 </i>
   </energy>
  </scstep>
  <scstep>
   <time name="total">    2.54    1.97</time>
   <energy>
    <i name="e_fr_energy">     -0.50725115 </i>
    <i name="e_wo_entrp">     -0.50725115 </i>
    <i name="e_0_energy">     -0.50725115 </i>
   </energy>
  </scstep>
  <scstep>
   <time name="total">    2.52    1.97</time>
   <energy>
    <i name="e_fr_energy">     -0.50725030 </i>
    <i name="e_wo_entrp">     -0.50725030 </i>
    <i name="e_0_energy">     -0.50725030 </i>
   </energy>
  </scstep>
  <scstep>
   <time name="total">    2.46    1.89</time>
   <energy>
    <i name="e_fr_energy">     -0.50725051 </i>
    <i name="e_wo_entrp">     -0.50725051 </i>
    <i name="e_0_energy">     -0.50725051 </i>
   </energy>
  </scstep>
  <scstep>
   <time name="total">    2.51    1.95</time>
   <energy>
    <i name="e_fr_energy">     -0.50725045 </i>
    <i name="e_wo_entrp">     -0.50725045 </i>
    <i name="e_0_energy">     -0.50725045 </i>
   </energy>
  </scstep>
  <scstep>
   <time name="total">    2.49    1.93</time>
   <energy>
    <i name="e_fr_energy">     -0.50725047 </i>
    <i name="e_wo_entrp">     -0.50725047 </i>
    <i name="e_0_energy">     -0.50725047 </i>
   </energy>
  </scstep>
  <kpoints>
   <generation param="Gamma">
    <v type="int" name="divisions">       4        4        4 </v>
    <v name="usershift">      0.00000000       0.00000000       0.00000000 </v>
    <v name="genvec1">      0.25000000       0.00000000       0.00000000 </v>
    <v name="genvec2">      0.00000000       0.25000000       0.00000000 </v>
    <v name="genvec3">      0.00000000       0.00000000       0.25000000 </v>
    <v name="shift">      0.00000000       0.00000000       0.00000000 </v>
   </generation>
   <varray name="kpointlist" >
    <v>       0.00000000       0.00000000       0.00000000 </v>
    <v>       0.25000000       0.00000000       0.00000000 </v>
    <v>       0.00000000       0.25000000       0.00000000 </v>
    <v>      -0.25000000       0.25000000       0.00000000 </v>
    <v>       0.50000000       0.00000000       0.00000000 </v>
    <v>       0.00000000       0.50000000       0.00000000 </v>
    <v>       0.50000000       0.50000000       0.00000000 </v>
    <v>       0.25000000       0.25000000       0.00000000 </v>
    <v>      -0.25000000       0.50000000       0.00000000 </v>
    <v>       0.50000000       0.25000000       0.00000000 </v>
    <v>       0.00000000       0.00000000       0.25000000 </v>
    <v>       0.25000000       0.00000000       0.25000000 </v>
    <v>       0.00000000       0.25000000       0.25000000 </v>
    <v>      -0.25000000       0.25000000       0.25000000 </v>
    <v>      -0.25000000       0.00000000       0.25000000 </v>
    <v>       0.00000000      -0.25000000       0.25000000 </v>
    <v>       0.25000000      -0.25000000       0.25000000 </v>
    <v>       0.50000000       0.00000000       0.25000000 </v>
    <v>       0.00000000       0.50000000       0.25000000 </v>
    <v>       0.50000000       0.50000000       0.25000000 </v>
    <v>       0.25000000       0.25000000       0.25000000 </v>
    <v>      -0.25000000       0.50000000       0.25000000 </v>
    <v>       0.50000000       0.25000000       0.25000000 </v>
    <v>      -0.25000000      -0.25000000       0.25000000 </v>
    <v>       0.25000000       0.50000000       0.25000000 </v>
    <v>       0.50000000      -0.25000000       0.25000000 </v>
    <v>       0.00000000       0.00000000       0.50000000 </v>
    <v>       0.25000000       0.00000000       0.50000000 </v>
    <v>       0.00000000       0.25000000       0.50000000 </v>
    <v>      -0.25000000       0.25000000       0.50000000 </v>
    <v>       0.50000000       0.00000000       0.50000000 </v>
    <v>       0.00000000       0.50000000       0.50000000 </v>
    <v>       0.50000000       0.50000000       0.50000000 </v>
    <v>       0.25000000       0.25000000       0.50000000 </v>
    <v>      -0.25000000       0.50000000       0.50000000 </v>
    <v>       0.50000000       0.25000000       0.50000000 </v>
   </varray>
   <varray name="weights" >
    <v>       0.01562500 </v>
    <v>       0.03125000 </v>
    <v>       0.03125000 </v>
    <v>       0.03125000 </v>
    <v>       0.01562500 </v>
    <v>       0.01562500 </v>
    <v>       0.01562500 </v>
    <v>       0.03125000 </v>
    <v>       0.03125000 </v>
    <v>       0.03125000 </v>
    <v>       0.03125000 </v>
    <v>       0.03125000 </v>
    <v>       0.03125000 </v>
    <v>       0.03125000 </v>
    <v>       0.03125000 </v>
    <v>       0.03125000 </v>
    <v>       0.03125000 </v>
    <v>       0.03125000 </v>
    <v>       0.03125000 </v>
    <v>       0.03125000 </v>
    <v>       0.03125000 </v>
    <v>       0.03125000 </v>
    <v>       0.03125000 </v>
    <v>       0.03125000 </v>
    <v>       0.03125000 </v>
    <v>       0.03125000 </v>
    <v>       0.01562500 </v>
    <v>       0.03125000 </v>
    <v>       0.03125000 </v>
    <v>       0.03125000 </v>
    <v>       0.01562500 </v>
    <v>       0.01562500 </v>
    <v>       0.01562500 </v>
    <v>       0.03125000 </v>
    <v>       0.03125000 </v>
    <v>       0.03125000 </v>
   </varray>
  </kpoints>
  <varray name="dielectric_dft" >
   <v>       2.48082377       0.00014176      -0.00006945 </v>
   <v>       0.00014495       2.48081960      -0.00000226 </v>
   <v>      -0.00007012      -0.00000320       2.51334310 </v>
  </varray>
  <varray name="epsilon" >
   <v>       2.48082377       0.00014176      -0.00006945 </v>
   <v>       0.00014495       2.48081960      -0.00000226 </v>
   <v>      -0.00007012      -0.00000320       2.51334310 </v>
  </varray>
  <kpoints>
   <generation param="Gamma">
    <v type="int" name="divisions">       4        4        4 </v>
    <v name="usershift">      0.00000000       0.00000000       0.00000000 </v>
    <v name="genvec1">      0.25000000       0.00000000       0.00000000 </v>
    <v name="genvec2">      0.00000000       0.25000000       0.00000000 </v>
    <v name="genvec3">      0.00000000       0.00000000       0.25000000 </v>
    <v name="shift">      0.00000000       0.00000000       0.00000000 </v>
   </generation>
   <varray name="kpointlist" >
    <v>       0.00000000       0.00000000       0.00000000 </v>
    <v>       0.25000000       0.00000000       0.00000000 </v>
    <v>       0.00000000       0.25000000       0.00000000 </v>
    <v>      -0.25000000       0.25000000       0.00000000 </v>
    <v>       0.50000000       0.00000000       0.00000000 </v>
    <v>       0.00000000       0.50000000       0.00000000 </v>
    <v>       0.50000000       0.50000000       0.00000000 </v>
    <v>       0.25000000       0.25000000       0.00000000 </v>
    <v>      -0.25000000       0.50000000       0.00000000 </v>
    <v>       0.50000000       0.25000000       0.00000000 </v>
    <v>       0.00000000       0.00000000       0.25000000 </v>
    <v>       0.25000000       0.00000000       0.25000000 </v>
    <v>       0.00000000       0.25000000       0.25000000 </v>
    <v>      -0.25000000       0.25000000       0.25000000 </v>
    <v>      -0.25000000       0.00000000       0.25000000 </v>
    <v>       0.00000000      -0.25000000       0.25000000 </v>
    <v>       0.25000000      -0.25000000       0.25000000 </v>
    <v>       0.50000000       0.00000000       0.25000000 </v>
    <v>       0.00000000       0.50000000       0.25000000 </v>
    <v>       0.50000000       0.50000000       0.25000000 </v>
    <v>       0.25000000       0.25000000       0.25000000 </v>
    <v>      -0.25000000       0.50000000       0.25000000 </v>
    <v>       0.50000000       0.25000000       0.25000000 </v>
    <v>      -0.25000000      -0.25000000       0.25000000 </v>
    <v>       0.25000000       0.50000000       0.25000000 </v>
    <v>       0.50000000      -0.25000000       0.25000000 </v>
    <v>       0.00000000       0.00000000       0.50000000 </v>
    <v>       0.25000000       0.00000000       0.50000000 </v>
    <v>       0.00000000       0.25000000       0.50000000 </v>
    <v>      -0.25000000       0.25000000       0.50000000 </v>
    <v>       0.50000000       0.00000000       0.50000000 </v>
    <v>       0.00000000       0.50000000       0.50000000 </v>
    <v>       0.50000000       0.50000000       0.50000000 </v>
    <v>       0.25000000       0.25000000       0.50000000 </v>
    <v>      -0.25000000       0.50000000       0.50000000 </v>
    <v>       0.50000000       0.25000000       0.50000000 </v>
   </varray>
   <varray name="weights" >
    <v>       0.01562500 </v>
    <v>       0.03125000 </v>
    <v>       0.03125000 </v>
    <v>       0.03125000 </v>
    <v>       0.01562500 </v>
    <v>       0.01562500 </v>
    <v>       0.01562500 </v>
    <v>       0.03125000 </v>
    <v>       0.03125000 </v>
    <v>       0.03125000 </v>
    <v>       0.03125000 </v>
    <v>       0.03125000 </v>
    <v>       0.03125000 </v>
    <v>       0.03125000 </v>
    <v>       0.03125000 </v>
    <v>       0.03125000 </v>
    <v>       0.03125000 </v>
    <v>       0.03125000 </v>
    <v>       0.03125000 </v>
    <v>       0.03125000 </v>
    <v>       0.03125000 </v>
    <v>       0.03125000 </v>
    <v>       0.03125000 </v>
    <v>       0.03125000 </v>
    <v>       0.03125000 </v>
    <v>       0.03125000 </v>
    <v>       0.01562500 </v>
    <v>       0.03125000 </v>
    <v>       0.03125000 </v>
    <v>       0.03125000 </v>
    <v>       0.01562500 </v>
    <v>       0.01562500 </v>
    <v>       0.01562500 </v>
    <v>       0.03125000 </v>
    <v>       0.03125000 </v>
    <v>       0.03125000 </v>
   </varray>
  </kpoints>
  <array name="born_charges" >
   <dimension dim="1">ion</dimension>
   <set>
    <v>       2.98055886       0.00018870      -0.00064668 </v>
    <v>      -0.00049846       3.62049768      -0.32134235 </v>
    <v>       0.00043913       0.27801730       3.42535359 </v>
   </set>
   <set>
    <v>       3.46067018       0.27708484       0.27837123 </v>
    <v>       0.27766068       3.14011917       0.16105915 </v>
    <v>      -0.24116788      -0.13950894       3.42498466 </v>
   </set>
   <set>
    <v>       3.46037330      -0.27714758      -0.27821410 </v>
    <v>      -0.27656337       3.14095124       0.16025859 </v>
    <v>       0.24039140      -0.13853815       3.42572553 </v>
   </set>
   <set>
    <v>      -1.31129579      -0.49352235      -0.30997367 </v>
    <v>      -0.43623904      -1.98894017      -0.67858128 </v>
    <v>      -0.24338835      -0.72113653      -1.71258902 </v>
   </set>
   <set>
    <v>      -2.22282761      -0.08990544       0.74320186 </v>
    <v>      -0.03274210      -1.07811904       0.07075026 </v>
    <v>       0.74683762       0.14979259      -1.71279692 </v>
   </set>
   <set>
    <v>      -1.41746794       0.49750320      -0.43299527 </v>
    <v>       0.55449812      -1.88319168       0.60819588 </v>
    <v>      -0.50323891       0.57146637      -1.71261678 </v>
   </set>
   <set>
    <v>      -1.31097018       0.49321489       0.31044651 </v>
    <v>       0.43598958      -1.98977388      -0.67940602 </v>
    <v>       0.24343494      -0.72177446      -1.71277978 </v>
   </set>
   <set>
    <v>      -2.22179111       0.09000545      -0.74299902 </v>
    <v>       0.03270090      -1.07834455       0.07094007 </v>
    <v>      -0.74621584       0.15002652      -1.71257501 </v>
   </set>
   <set>
    <v>      -1.41724970      -0.49742170       0.43280913 </v>
    <v>      -0.55480632      -1.88319877       0.60812570 </v>
    <v>       0.50290788       0.57165530      -1.71270626 </v>
   </set>
  </array>
  <time name="totalsc">  457.36  254.46</time>
  <eigenvalues>
   <array>
    <dimension dim="1">band</dimension>
    <dimension dim="2">kpoint</dimension>
    <dimension dim="3">spin</dimension>
    <field>eigene</field>
    <field>occ</field>
    <set>
     <set comment="spin 1">
      <set comment="kpoint 1">
       <r>  -18.1719    1.0000 </r>
       <r>  -16.6201    1.0000 </r>
       <r>  -16.6201    1.0000 </r>
       <r>  -15.9516    1.0000 </r>
       <r>  -15.9424    1.0000 </r>
       <r>  -15.9423    1.0000 </r>
       <r>   -6.8795    1.0000 </r>
       <r>   -6.8783    1.0000 </r>
       <r>   -4.1465    1.0000 </r>
       <r>   -4.0639    1.0000 </r>
       <r>   -3.9119    1.0000 </r>
       <r>   -3.9105    1.0000 </r>
       <r>   -1.6862    1.0000 </r>
       <r>   -1.6851    1.0000 </r>
       <r>   -1.3748    1.0000 </r>
[...]
       <r>    1.1192    1.0000 </r>
       <r>   10.2260    0.0000 </r>
       <r>   10.7264    0.0000 </r>
       <r>   11.0142    0.0000 </r>
       <r>   11.2005    0.0000 </r>
       <r>   11.5406    0.0000 </r>
      </set>
      <set comment="kpoint 34">
       <r>  -17.5751    1.0000 </r>
       <r>  -17.1860    1.0000 </r>
       <r>  -16.6526    1.0000 </r>
       <r>  -16.0617    1.0000 </r>
       <r>  -15.9931    1.0000 </r>
       <r>  -15.9923    1.0000 </r>
       <r>   -6.8570    1.0000 </r>
       <r>   -5.8698    1.0000 </r>
       <r>   -5.1560    1.0000 </r>
       <r>   -3.8969    1.0000 </r>
       <r>   -3.7957    1.0000 </r>
       <r>   -3.6156    1.0000 </r>
       <r>   -1.9738    1.0000 </r>
       <r>   -1.7468    1.0000 </r>
       <r>   -1.2649    1.0000 </r>
       <r>   -0.9000    1.0000 </r>
       <r>   -0.6229    1.0000 </r>
       <r>   -0.4228    1.0000 </r>
       <r>    0.1492    1.0000 </r>
       <r>    0.2552    1.0000 </r>
       <r>    0.3289    1.0000 </r>
       <r>    0.5712    1.0000 </r>
       <r>    0.7169    1.0000 </r>
       <r>    0.9243    1.0000 </r>
       <r>   10.1782    0.0000 </r>
       <r>   10.6505    0.0000 </r>
       <r>   10.9631    0.0000 </r>
       <r>   11.3045    0.0000 </r>
       <r>   11.7230    0.0000 </r>
      </set>
      <set comment="kpoint 35">
       <r>  -17.5753    1.0000 </r>
       <r>  -17.1859    1.0000 </r>
       <r>  -16.6521    1.0000 </r>
       <r>  -16.0618    1.0000 </r>
       <r>  -15.9929    1.0000 </r>
       <r>  -15.9927    1.0000 </r>
       <r>   -6.8562    1.0000 </r>
       <r>   -5.8703    1.0000 </r>
       <r>   -5.1563    1.0000 </r>
       <r>   -3.8987    1.0000 </r>
       <r>   -3.7944    1.0000 </r>
       <r>   -3.6155    1.0000 </r>
       <r>   -1.9740    1.0000 </r>
       <r>   -1.7470    1.0000 </r>
       <r>   -1.2645    1.0000 </r>
       <r>   -0.9007    1.0000 </r>
       <r>   -0.6219    1.0000 </r>
       <r>   -0.4216    1.0000 </r>
       <r>    0.1495    1.0000 </r>
       <r>    0.2563    1.0000 </r>
       <r>    0.3279    1.0000 </r>
       <r>    0.5712    1.0000 </r>
       <r>    0.7160    1.0000 </r>
       <r>    0.9239    1.0000 </r>
       <r>   10.1760    0.0000 </r>
       <r>   10.6515    0.0000 </r>
       <r>   10.9635    0.0000 </r>
       <r>   11.3053    0.0000 </r>
       <r>   11.7227    0.0000 </r>
      </set>
      <set comment="kpoint 36">
       <r>  -17.5752    1.0000 </r>
       <r>  -17.1860    1.0000 </r>
       <r>  -16.6523    1.0000 </r>
       <r>  -16.0617    1.0000 </r>
       <r>  -15.9930    1.0000 </r>
       <r>  -15.9925    1.0000 </r>
       <r>   -6.8566    1.0000 </r>
       <r>   -5.8701    1.0000 </r>
       <r>   -5.1562    1.0000 </r>
       <r>   -3.8978    1.0000 </r>
       <r>   -3.7950    1.0000 </r>
       <r>   -3.6155    1.0000 </r>
       <r>   -1.9739    1.0000 </r>
       <r>   -1.7469    1.0000 </r>
       <r>   -1.2647    1.0000 </r>
       <r>   -0.9003    1.0000 </r>
       <r>   -0.6224    1.0000 </r>
       <r>   -0.4222    1.0000 </r>
       <r>    0.1493    1.0000 </r>
       <r>    0.2557    1.0000 </r>
       <r>    0.3284    1.0000 </r>
       <r>    0.5712    1.0000 </r>
       <r>    0.7164    1.0000 </r>
       <r>    0.9241    1.0000 </r>
       <r>   10.1771    0.0000 </r>
       <r>   10.6510    0.0000 </r>
       <r>   10.9633    0.0000 </r>
       <r>   11.3049    0.0000 </r>
       <r>   11.7232    0.0000 </r>
      </set>
     </set>
    </set>
   </array>
  </eigenvalues>
  <separator name="orbital magnetization" >
   <v name="MAGDIPOLOUT">      0.00000000      0.00000000      0.00000000</v>
  </separator>
  <dos>
   <i name="efermi">      1.78498311 </i>
   <total>
    <array>
     <dimension dim="1">gridpoints</dimension>
     <dimension dim="2">spin</dimension>
     <field>energy</field>
     <field>total</field>
     <field>integrated</field>
     <set>
      <set comment="spin 1">
       <r>   -19.6805     0.0000     0.0000 </r>
       <r>   -19.5699     0.0000     0.0000 </r>
       <r>   -19.4593     0.0000     0.0000 </r>
       <r>   -19.3486     0.0000     0.0000 </r>
       <r>   -19.2380     0.0000     0.0000 </r>
       <r>   -19.1274     0.0000     0.0000 </r>
       <r>   -19.0167     0.0000     0.0000 </r>
       <r>   -18.9061     0.0000     0.0000 </r>
       <r>   -18.7955     0.0000     0.0000 </r>
       <r>   -18.6849     0.0000     0.0000 </r>
       <r>   -18.5742     0.0000     0.0000 </r>
       <r>   -18.4636     0.0000     0.0000 </r>
       <r>   -18.3530     0.0015     0.0002 </r>
       <r>   -18.2423     0.0455     0.0052 </r>
       <r>   -18.1317     0.2561     0.0335 </r>
       <r>   -18.0211     0.9593     0.1397 </r>
       <r>   -17.9105     2.1806     0.3809 </r>
       <r>   -17.7998     2.2490     0.6297 </r>
       <r>   -17.6892     3.1562     0.9789 </r>
       <r>   -17.5786     6.7082     1.7210 </r>
       <r>   -17.4679     3.7416     2.1349 </r>
       <r>   -17.3573     0.7674     2.2198 </r>
       <r>   -17.2467     1.6680     2.4043 </r>
       <r>   -17.1361     7.3344     3.2157 </r>
       <r>   -17.0254     4.7001     3.7357 </r>
       <r>   -16.9148     0.5606     3.7977 </r>
       <r>   -16.8042     0.9822     3.9064 </r>
       <r>   -16.6935     2.7471     4.2103 </r>
       <r>   -16.5829     6.4603     4.9250 </r>
       <r>   -16.4723     3.7459     5.3394 </r>
       <r>   -16.3616     1.9949     5.5601 </r>
       <r>   -16.2510     2.2037     5.8039 </r>
       <r>   -16.1404     3.0171     6.1377 </r>
       <r>   -16.0298    16.1124     7.9202 </r>
       <r>   -15.9191    27.1212    10.9206 </r>
       <r>   -15.8085     9.2225    11.9408 </r>
       <r>   -15.6979     0.5306    11.9995 </r>
       <r>   -15.5872     0.0041    12.0000 </r>
       <r>   -15.4766     0.0000    12.0000 </r>
       <r>   -15.3660     0.0000    12.0000 </r>
       <r>   -15.2554     0.0000    12.0000 </r>
       <r>   -15.1447     0.0000    12.0000 </r>
       <r>   -15.0341     0.0000    12.0000 </r>
       <r>   -14.9235     0.0000    12.0000 </r>
       <r>   -14.8128     0.0000    12.0000 </r>
       <r>   -14.7022     0.0000    12.0000 </r>
       <r>   -14.5916     0.0000    12.0000 </r>
       <r>   -14.4810     0.0000    12.0000 </r>
       <r>   -14.3703     0.0000    12.0000 </r>
       <r>   -14.2597     0.0000    12.0000 </r>
       <r>   -14.1491     0.0000    12.0000 </r>
       <r>   -14.0384     0.0000    12.0000 </r>
       <r>   -13.9278     0.0000    12.0000 </r>
       <r>   -13.8172     0.0000    12.0000 </r>
       <r>   -13.7065     0.0000    12.0000 </r>
       <r>   -13.5959     0.0000    12.0000 </r>
       <r>   -13.4853     0.0000    12.0000 </r>
       <r>   -13.3747     0.0000    12.0000 </r>
       <r>   -13.2640     0.0000    12.0000 </r>
       <r>   -13.1534     0.0000    12.0000 </r>
       <r>   -13.0428     0.0000    12.0000 </r>
       <r>   -12.9321     0.0000    12.0000 </r>
       <r>   -12.8215     0.0000    12.0000 </r>
       <r>   -12.7109     0.0000    12.0000 </r>
       <r>   -12.6003     0.0000    12.0000 </r>
       <r>   -12.4896     0.0000    12.0000 </r>
       <r>   -12.3790     0.0000    12.0000 </r>
       <r>   -12.2684     0.0000    12.0000 </r>
       <r>   -12.1577     0.0000    12.0000 </r>
       <r>   -12.0471     0.0000    12.0000 </r>
       <r>   -11.9365     0.0000    12.0000 </r>
       <r>   -11.8259     0.0000    12.0000 </r>
       <r>   -11.7152     0.0000    12.0000 </r>
       <r>   -11.6046     0.0000    12.0000 </r>
       <r>   -11.4940     0.0000    12.0000 </r>
       <r>   -11.3833     0.0000    12.0000 </r>
       <r>   -11.2727     0.0000    12.0000 </r>
       <r>   -11.1621     0.0000    12.0000 </r>
       <r>   -11.0515     0.0000    12.0000 </r>
       <r>   -10.9408     0.0000    12.0000 </r>
       <r>   -10.8302     0.0000    12.0000 </r>
       <r>   -10.7196     0.0000    12.0000 </r>
       <r>   -10.6089     0.0000    12.0000 </r>
       <r>   -10.4983     0.0000    12.0000 </r>
       <r>   -10.3877     0.0000    12.0000 </r>
       <r>   -10.2770     0.0000    12.0000 </r>
       <r>   -10.1664     0.0000    12.0000 </r>
       <r>   -10.0558     0.0000    12.0000 </r>
       <r>    -9.9452     0.0000    12.0000 </r>
       <r>    -9.8345     0.0000    12.0000 </r>
       <r>    -9.7239     0.0000    12.0000 </r>
       <r>    -9.6133     0.0000    12.0000 </r>
       <r>    -9.5026     0.0000    12.0000 </r>
       <r>    -9.3920     0.0000    12.0000 </r>
       <r>    -9.2814     0.0000    12.0000 </r>
       <r>    -9.1708     0.0000    12.0000 </r>
       <r>    -9.0601     0.0000    12.0000 </r>
       <r>    -8.9495     0.0000    12.0000 </r>
       <r>    -8.8389     0.0000    12.0000 </r>
       <r>    -8.7282     0.0000    12.0000 </r>
       <r>    -8.6176     0.0000    12.0000 </r>
       <r>    -8.5070     0.0000    12.0000 </r>
       <r>    -8.3964     0.0000    12.0000 </r>
       <r>    -8.2857     0.0000    12.0000 </r>
       <r>    -8.1751     0.0001    12.0000 </r>
       <r>    -8.0645     0.0118    12.0013 </r>
       <r>    -7.9538     0.1115    12.0137 </r>
       <r>    -7.8432     0.1384    12.0290 </r>
       <r>    -7.7326     0.0943    12.0394 </r>
       <r>    -7.6219     0.4186    12.0857 </r>
       <r>    -7.5113     0.9767    12.1938 </r>
       <r>    -7.4007     1.2330    12.3302 </r>
       <r>    -7.2901     1.9623    12.5473 </r>
       <r>    -7.1794     1.0236    12.6605 </r>
       <r>    -7.0688     1.4007    12.8155 </r>
       <r>    -6.9582     4.6338    13.3281 </r>
       <r>    -6.8475     4.7382    13.8523 </r>
       <r>    -6.7369     1.5034    14.0186 </r>
       <r>    -6.6263     0.1960    14.0403 </r>
       <r>    -6.5157     0.7042    14.1182 </r>
       <r>    -6.4050     0.7898    14.2056 </r>
       <r>    -6.2944     0.1174    14.2185 </r>
       <r>    -6.1838     0.0262    14.2214 </r>
       <r>    -6.0731     0.5316    14.2803 </r>
       <r>    -5.9625     3.4426    14.6611 </r>
       <r>    -5.8519     6.9584    15.4309 </r>
       <r>    -5.7413     2.9648    15.7589 </r>
       <r>    -5.6306     0.2003    15.7811 </r>
       <r>    -5.5200     0.0178    15.7830 </r>
       <r>    -5.4094     0.3535    15.8221 </r>
       <r>    -5.2987     0.9964    15.9324 </r>
       <r>    -5.1881     0.9273    16.0350 </r>
       <r>    -5.0775     2.2014    16.2785 </r>
       <r>    -4.9668     3.8988    16.7098 </r>
       <r>    -4.8562     2.9716    17.0386 </r>
       <r>    -4.7456     1.8723    17.2457 </r>
       <r>    -4.6350     1.8044    17.4453 </r>
       <r>    -4.5243     1.9918    17.6657 </r>
       <r>    -4.4137     0.6184    17.7341 </r>
       <r>    -4.3031     0.7515    17.8172 </r>
       <r>    -4.1924     3.1007    18.1602 </r>
       <r>    -4.0818     8.8833    19.1430 </r>
       <r>    -3.9712     9.6717    20.2130 </r>
       <r>    -3.8606     6.6529    20.9490 </r>
       <r>    -3.7499     6.7681    21.6977 </r>
       <r>    -3.6393     5.6606    22.3239 </r>
       <r>    -3.5287     5.6948    22.9540 </r>
       <r>    -3.4180     5.0848    23.5165 </r>
       <r>    -3.3074     2.6599    23.8108 </r>
       <r>    -3.1968     1.4490    23.9711 </r>
       <r>    -3.0862     0.2558    23.9994 </r>
       <r>    -2.9755     0.0058    24.0000 </r>
       <r>    -2.8649     0.0000    24.0000 </r>
       <r>    -2.7543     0.0000    24.0000 </r>
       <r>    -2.6436     0.0000    24.0000 </r>
       <r>    -2.5330     0.0000    24.0000 </r>
       <r>    -2.4224     0.0000    24.0000 </r>
       <r>    -2.3118     0.0000    24.0000 </r>
       <r>    -2.2011     0.0015    24.0002 </r>
       <r>    -2.0905     0.1644    24.0184 </r>
       <r>    -1.9799     2.6417    24.3106 </r>
       <r>    -1.8692     7.9640    25.1917 </r>
       <r>    -1.7586     8.1277    26.0908 </r>
       <r>    -1.6480     6.8162    26.8449 </r>
       <r>    -1.5373     5.3427    27.4360 </r>
       <r>    -1.4267     6.3750    28.1412 </r>
       <r>    -1.3161     8.4950    29.0810 </r>
       <r>    -1.2055     5.9378    29.7379 </r>
       <r>    -1.0948     3.8867    30.1679 </r>
       <r>    -0.9842     4.8575    30.7053 </r>
       <r>    -0.8736     8.3973    31.6342 </r>
       <r>    -0.7629     6.9339    32.4013 </r>
       <r>    -0.6523     7.3792    33.2177 </r>
       <r>    -0.5417     6.3187    33.9167 </r>
       <r>    -0.4311     6.2642    34.6097 </r>
       <r>    -0.3204     5.9504    35.2680 </r>
       <r>    -0.2098     8.0635    36.1601 </r>
       <r>    -0.0992     9.8380    37.2484 </r>
       <r>     0.0115     8.1680    38.1520 </r>
       <r>     0.1221     8.9436    39.1415 </r>
       <r>     0.2327     9.4950    40.1919 </r>
       <r>     0.3433    10.6992    41.3755 </r>
       <r>     0.4540     8.7306    42.3414 </r>
       <r>     0.5646     5.7918    42.9821 </r>
       <r>     0.6752     6.2824    43.6772 </r>
       <r>     0.7859     5.2743    44.2606 </r>
       <r>     0.8965     6.6583    44.9972 </r>
       <r>     1.0071     6.7044    45.7390 </r>
       <r>     1.1178     7.8358    46.6058 </r>
       <r>     1.2284     8.2926    47.5232 </r>
       <r>     1.3390     3.7570    47.9389 </r>
       <r>     1.4496     0.5395    47.9985 </r>
       <r>     1.5603     0.0131    48.0000 </r>
       <r>     1.6709     0.0000    48.0000 </r>
       <r>     1.7815     0.0000    48.0000 </r>
       <r>     1.8922     0.0000    48.0000 </r>
       <r>     2.0028     0.0000    48.0000 </r>
       <r>     2.1134     0.0000    48.0000 </r>
       <r>     2.2240     0.0000    48.0000 </r>
       <r>     2.3347     0.0000    48.0000 </r>
       <r>     2.4453     0.0000    48.0000 </r>
       <r>     2.5559     0.0000    48.0000 </r>
       <r>     2.6666     0.0000    48.0000 </r>
       <r>     2.7772     0.0000    48.0000 </r>
       <r>     2.8878     0.0000    48.0000 </r>
       <r>     2.9984     0.0000    48.0000 </r>
       <r>     3.1091     0.0000    48.0000 </r>
       <r>     3.2197     0.0000    48.0000 </r>
       <r>     3.3303     0.0000    48.0000 </r>
       <r>     3.4410     0.0000    48.0000 </r>
       <r>     3.5516     0.0000    48.0000 </r>
       <r>     3.6622     0.0000    48.0000 </r>
       <r>     3.7728     0.0000    48.0000 </r>
       <r>     3.8835     0.0000    48.0000 </r>
       <r>     3.9941     0.0000    48.0000 </r>
       <r>     4.1047     0.0000    48.0000 </r>
       <r>     4.2154     0.0000    48.0000 </r>
       <r>     4.3260     0.0000    48.0000 </r>
       <r>     4.4366     0.0000    48.0000 </r>
       <r>     4.5473     0.0000    48.0000 </r>
       <r>     4.6579     0.0000    48.0000 </r>
       <r>     4.7685     0.0000    48.0000 </r>
       <r>     4.8791     0.0000    48.0000 </r>
       <r>     4.9898     0.0000    48.0000 </r>
       <r>     5.1004     0.0000    48.0000 </r>
       <r>     5.2110     0.0000    48.0000 </r>
       <r>     5.3217     0.0000    48.0000 </r>
       <r>     5.4323     0.0000    48.0000 </r>
       <r>     5.5429     0.0000    48.0000 </r>
       <r>     5.6535     0.0000    48.0000 </r>
       <r>     5.7642     0.0000    48.0000 </r>
       <r>     5.8748     0.0000    48.0000 </r>
       <r>     5.9854     0.0000    48.0000 </r>
       <r>     6.0961     0.0000    48.0000 </r>
       <r>     6.2067     0.0000    48.0000 </r>
       <r>     6.3173     0.0000    48.0000 </r>
       <r>     6.4279     0.0000    48.0000 </r>
       <r>     6.5386     0.0000    48.0000 </r>
       <r>     6.6492     0.0000    48.0000 </r>
       <r>     6.7598     0.0000    48.0000 </r>
       <r>     6.8705     0.0000    48.0000 </r>
       <r>     6.9811     0.0000    48.0000 </r>
       <r>     7.0917     0.0001    48.0000 </r>
       <r>     7.2024     0.0121    48.0014 </r>
       <r>     7.3130     0.1123    48.0138 </r>
       <r>     7.4236     0.1358    48.0288 </r>
       <r>     7.5342     0.0217    48.0312 </r>
       <r>     7.6449     0.0004    48.0313 </r>
       <r>     7.7555     0.0030    48.0316 </r>
       <r>     7.8661     0.0884    48.0414 </r>
       <r>     7.9768     0.3146    48.0762 </r>
       <r>     8.0874     0.1833    48.0964 </r>
       <r>     8.1980     0.5015    48.1519 </r>
       <r>     8.3086     0.9276    48.2545 </r>
       <r>     8.4193     0.2346    48.2805 </r>
       <r>     8.5299     0.0570    48.2868 </r>
       <r>     8.6405     0.8137    48.3768 </r>
       <r>     8.7512     1.8584    48.5824 </r>
       <r>     8.8618     0.6372    48.6529 </r>
       <r>     8.9724     0.0301    48.6562 </r>
       <r>     9.0830     0.0006    48.6563 </r>
       <r>     9.1937     0.0291    48.6595 </r>
       <r>     9.3043     0.2522    48.6874 </r>
       <r>     9.4149     0.5739    48.7509 </r>
       <r>     9.5256     1.0752    48.8699 </r>
       <r>     9.6362     1.4505    49.0303 </r>
       <r>     9.7468     3.0684    49.3698 </r>
       <r>     9.8575     2.9749    49.6989 </r>
       <r>     9.9681     1.7504    49.8925 </r>
       <r>    10.0787     0.5453    49.9529 </r>
       <r>    10.1893     1.0806    50.0724 </r>
       <r>    10.3000     1.3718    50.2242 </r>
       <r>    10.4106     2.0598    50.4521 </r>
       <r>    10.5212     3.1209    50.7973 </r>
       <r>    10.6319     5.0751    51.3588 </r>
       <r>    10.7425     9.0580    52.3608 </r>
       <r>    10.8531     6.1869    53.0453 </r>
       <r>    10.9637     6.5366    53.7684 </r>
       <r>    11.0744     7.3541    54.5820 </r>
       <r>    11.1850     3.0128    54.9153 </r>
       <r>    11.2956     3.6718    55.3215 </r>
       <r>    11.4063     5.6607    55.9478 </r>
       <r>    11.5169     6.3200    56.6469 </r>
       <r>    11.6275     5.3423    57.2379 </r>
       <r>    11.7381     3.3658    57.6103 </r>
       <r>    11.8488     2.1642    57.8497 </r>
       <r>    11.9594     0.7331    57.9308 </r>
       <r>    12.0700     0.4925    57.9853 </r>
       <r>    12.1807     0.1285    57.9995 </r>
       <r>    12.2913     0.0043    58.0000 </r>
       <r>    12.4019     0.0000    58.0000 </r>
       <r>    12.5125     0.0000    58.0000 </r>
       <r>    12.6232     0.0000    58.0000 </r>
       <r>    12.7338     0.0000    58.0000 </r>
       <r>    12.8444     0.0000    58.0000 </r>
       <r>    12.9551     0.0000    58.0000 </r>
       <r>    13.0657     0.0000    58.0000 </r>
       <r>    13.1763     0.0000    58.0000 </r>
       <r>    13.2870     0.0000    58.0000 </r>
       <r>    13.3976     0.0000    58.0000 </r>
       <r>    13.5082     0.0000    58.0000 </r>
      </set>
     </set>
    </array>
   </total>
  </dos>
 </calculation>
 <structure name="finalpos" >
  <crystal>
   <varray name="basis" >
    <v>       4.87342988       0.00000000       0.00000000 </v>
    <v>      -2.43671494       4.22051408       0.00000000 </v>
    <v>       0.00000000       0.00000000       5.37418982 </v>
   </varray>
   <i name="volume">    110.53837516 </i>
   <varray name="rec_basis" >
    <v>       0.20519429       0.11846898      -0.00000000 </v>
    <v>       0.00000000       0.23693796       0.00000000 </v>
    <v>       0.00000000      -0.00000000       0.18607456 </v>
   </varray>
  </crystal>
  <varray name="positions" >
   <v>       0.46465378       0.99994165       0.66664669 </v>
   <v>       0.99997083       0.46470471       0.33334332 </v>
   <v>       0.53536798       0.53533881       0.00000999 </v>
   <v>       0.13538577       0.72384523       0.55431838 </v>
   <v>       0.27608387       0.41166475       0.22088228 </v>
   <v>       0.58868921       0.86450303       0.88736566 </v>
   <v>       0.41147018       0.27588021       0.77927417 </v>
   <v>       0.86460514       0.58865403       0.11250473 </v>
   <v>       0.72377885       0.13547878       0.44565478 </v>
  </varray>
 </structure>
</modeling>
