<?xml version="1.0" encoding="ISO-8859-1"?>
<modeling>
 <generator>
  <i name="program" type="string">vasp </i>
  <i name="version" type="string">6.4.1  </i>
  <i name="subversion" type="string">05Apr23 (build Sep  6 2023 20:49:31) complex                          parallel </i>
  <i name="platform" type="string">LinuxNV </i>
  <i name="date" type="string">2023 10 19 </i>
  <i name="time" type="string">14:07:52 </i>
 </generator>
 <incar>
  <i type="string" name="PREC">Accurate</i>
  <i type="string" name="ALGO">Fast</i>
  <i name="EDIFF">      0.00000001</i>
  <i name="ENCUT">    500.00000000</i>
  <i type="int" name="ISMEAR">     0</i>
  <i name="SIGMA">      0.10000000</i>
  <i type="logical" name="LEPSILON"> T  </i>
 </incar>
 <primitive_cell>
  <structure name="primitive_cell" >
   <crystal>
    <varray name="basis" >
     <v>       4.87342988       0.00000000       0.00000000 </v>
     <v>      -2.43671494       4.22051408       0.00000000 </v>
     <v>       0.00000000       0.00000000       5.37418982 </v>
    </varray>
    <i name="volume">    110.53837516 </i>
    <varray name="rec_basis" >
     <v>       0.20519429       0.11846898      -0.00000000 </v>
     <v>       0.00000000       0.23693796       0.00000000 </v>
     <v>       0.00000000      -0.00000000       0.18607456 </v>
    </varray>
   </crystal>
   <varray name="positions" >
    <v>       0.46473068       0.00009546       0.66674039 </v>
    <v>       0.99990454       0.46463522       0.33340705 </v>
    <v>       0.53536478       0.53526932       0.00007372 </v>
    <v>       0.13567049       0.72402958       0.55412407 </v>
    <v>       0.27597042       0.41164091       0.22079073 </v>
    <v>       0.58835909       0.86432951       0.88745740 </v>
    <v>       0.41136981       0.27606456       0.77907986 </v>
    <v>       0.86469475       0.58863019       0.11241319 </v>
    <v>       0.72393544       0.13530525       0.44574652 </v>
   </varray>
  </structure>
  <varray name="primitive_index" >
   <v type="int" >        1 </v>
   <v type="int" >        2 </v>
   <v type="int" >        3 </v>
   <v type="int" >        4 </v>
   <v type="int" >        5 </v>
   <v type="int" >        6 </v>
   <v type="int" >        7 </v>
   <v type="int" >        8 </v>
   <v type="int" >        9 </v>
  </varray>
 </primitive_cell>
 <kpoints>
  <generation param="Gamma">
   <v type="int" name="divisions">       4        4        4 </v>
   <v name="usershift">      0.00000000       0.00000000       0.00000000 </v>
   <v name="genvec1">      0.25000000       0.00000000       0.00000000 </v>
   <v name="genvec2">      0.00000000       0.25000000       0.00000000 </v>
   <v name="genvec3">      0.00000000       0.00000000       0.25000000 </v>
   <v name="shift">      0.00000000       0.00000000       0.00000000 </v>
  </generation>
  <varray name="kpointlist" >
   <v>       0.00000000       0.00000000       0.00000000 </v>
   <v>       0.25000000       0.00000000       0.00000000 </v>
   <v>       0.50000000       0.00000000       0.00000000 </v>
   <v>       0.25000000       0.25000000       0.00000000 </v>
   <v>       0.00000000       0.00000000       0.25000000 </v>
   <v>       0.25000000       0.00000000       0.25000000 </v>
   <v>       0.00000000       0.25000000       0.25000000 </v>
   <v>       0.50000000       0.00000000       0.25000000 </v>
   <v>       0.25000000       0.25000000       0.25000000 </v>
   <v>      -0.25000000       0.50000000       0.25000000 </v>
   <v>       0.00000000       0.00000000       0.50000000 </v>
   <v>       0.25000000       0.00000000       0.50000000 </v>
   <v>       0.50000000       0.00000000       0.50000000 </v>
   <v>       0.25000000       0.25000000       0.50000000 </v>
  </varray>
  <varray name="weights" >
   <v>       0.01562500 </v>
   <v>       0.09375000 </v>
   <v>       0.04687500 </v>
   <v>       0.09375000 </v>
   <v>       0.03125000 </v>
   <v>       0.09375000 </v>
   <v>       0.09375000 </v>
   <v>       0.09375000 </v>
   <v>       0.09375000 </v>
   <v>       0.09375000 </v>
   <v>       0.01562500 </v>
   <v>       0.09375000 </v>
   <v>       0.04687500 </v>
   <v>       0.09375000 </v>
  </varray>
 </kpoints>
 <parameters>
  <separator name="general" >
   <i type="string" name="SYSTEM">unknown system</i>
   <i type="logical" name="LCOMPAT"> F  </i>
  </separator>
  <separator name="electronic" >
   <i type="string" name="PREC">accura</i>
   <i name="ENMAX">    500.00000000</i>
   <i name="ENAUG">    605.39200000</i>
   <i name="EDIFF">      0.00000001</i>
   <i type="int" name="IALGO">    68</i>
   <i type="int" name="IWAVPR">    10</i>
   <i type="int" name="NBANDS">    29</i>
   <i type="int" name="NBANDSLOW">    -1</i>
   <i type="int" name="NBANDSHIGH">    -1</i>
   <i name="NELECT">     48.00000000</i>
   <i type="int" name="TURBO">     0</i>
   <i type="int" name="IRESTART">     0</i>
   <i type="int" name="NREBOOT">     0</i>
   <i type="int" name="NMIN">     0</i>
   <i name="EREF">      0.00000000</i>
   <separator name="electronic smearing" >
    <i type="int" name="ISMEAR">     0</i>
    <i name="SIGMA">      0.10000000</i>
    <i name="KSPACING">      0.50000000</i>
    <i type="logical" name="KGAMMA"> T  </i>
    <i type="logical" name="KBLOWUP"> T  </i>
   </separator>
   <separator name="electronic projectors" >
    <i type="logical" name="LREAL"> F  </i>
    <v name="ROPT">      0.00000000      0.00000000</v>
    <i type="int" name="LMAXPAW">  -100</i>
    <i type="int" name="LMAXMIX">     2</i>
    <i type="logical" name="NLSPLINE"> F  </i>
   </separator>
   <separator name="electronic startup" >
    <i type="int" name="ISTART">     0</i>
    <i type="int" name="ICHARG">     2</i>
    <i type="int" name="INIWAV">     1</i>
   </separator>
   <separator name="electronic spin" >
    <i type="int" name="ISPIN">     1</i>
    <i type="logical" name="LNONCOLLINEAR"> F  </i>
    <v name="MAGMOM">      1.00000000      1.00000000      1.00000000      1.00000000      1.00000000      1.00000000      1.00000000      1.00000000      1.00000000</v>
    <i name="NUPDOWN">     -1.00000000</i>
    <i type="logical" name="LSORBIT"> F  </i>
    <v name="SAXIS">      0.00000000      0.00000000      1.00000000</v>
    <i type="logical" name="LSPIRAL"> F  </i>
    <v name="QSPIRAL">      0.00000000      0.00000000      0.00000000</v>
    <i type="logical" name="LZEROZ"> F  </i>
   </separator>
   <separator name="electronic exchange-correlation" >
    <i type="logical" name="LASPH"> F  </i>
    <i type="logical" name="LMETAGGA"> F  </i>
   </separator>
   <separator name="electronic convergence" >
    <i type="int" name="NELM">    60</i>
    <i type="int" name="NELMDL">    -5</i>
    <i type="int" name="NELMIN">     2</i>
    <i name="ENINI">    500.00000000</i>
    <separator name="electronic convergence detail" >
     <i type="logical" name="LDIAG"> T  </i>
     <i type="logical" name="LSUBROT"> F  </i>
     <i name="WEIMIN">      0.00000000</i>
     <i name="EBREAK">      0.00000000</i>
     <i name="DEPER">      0.30000000</i>
     <i type="int" name="NRMM">     4</i>
     <i name="TIME">      0.40000000</i>
    </separator>
   </separator>
   <separator name="electronic mixer" >
    <i name="AMIX">      0.40000000</i>
    <i name="BMIX">      1.00000000</i>
    <i name="AMIN">      0.10000000</i>
    <i name="AMIX_MAG">      1.60000000</i>
    <i name="BMIX_MAG">      1.00000000</i>
    <separator name="electronic mixer details" >
     <i type="int" name="IMIX">     4</i>
     <i type="logical" name="MIXFIRST"> F  </i>
     <i type="int" name="MAXMIX">   -45</i>
     <i name="WC">    100.00000000</i>
     <i type="int" name="INIMIX">     1</i>
     <i type="int" name="MIXPRE">     1</i>
     <i type="int" name="MREMOVE">     5</i>
    </separator>
   </separator>
   <separator name="electronic dipolcorrection" >
    <i type="logical" name="LDIPOL"> F  </i>
    <i type="logical" name="LMONO"> F  </i>
    <i type="int" name="IDIPOL">     0</i>
    <i name="EPSILON">      1.00000000</i>
    <v name="DIPOL">   -100.00000000   -100.00000000   -100.00000000</v>
    <i name="EFIELD">      0.00000000</i>
   </separator>
  </separator>
  <separator name="grids" >
   <i type="int" name="NGX">    36</i>
   <i type="int" name="NGY">    36</i>
   <i type="int" name="NGZ">    40</i>
   <i type="int" name="NGXF">    72</i>
   <i type="int" name="NGYF">    72</i>
   <i type="int" name="NGZF">    80</i>
   <i type="logical" name="ADDGRID"> F  </i>
  </separator>
  <separator name="ionic" >
   <i type="int" name="NSW">     0</i>
   <i type="int" name="IBRION">    -1</i>
   <i type="int" name="MDALGO">     0</i>
   <i type="int" name="ISIF">     2</i>
   <i name="PSTRESS">      0.00000000</i>
   <i name="EDIFFG">      0.00000010</i>
   <i type="int" name="NFREE">     0</i>
   <i name="POTIM">      0.50000000</i>
   <i name="SMASS">     -3.00000000</i>
   <i name="SCALEE">      1.00000000</i>
  </separator>
  <separator name="ionic md" >
   <i name="TEBEG">      0.00010000</i>
   <i name="TEEND">      0.00010000</i>
   <i type="int" name="NBLOCK">     1</i>
   <i type="int" name="KBLOCK">     1</i>
   <i type="int" name="NPACO">   256</i>
   <i name="APACO">     10.00000000</i>
  </separator>
  <separator name="symmetry" >
   <i type="int" name="ISYM">     2</i>
   <i name="SYMPREC">      0.00001000</i>
  </separator>
  <separator name="dos" >
   <i type="int" name="LORBIT">     0</i>
   <v name="RWIGS">     -1.00000000     -1.00000000</v>
   <i type="int" name="NEDOS">   301</i>
   <i name="EMIN">     10.00000000</i>
   <i name="EMAX">    -10.00000000</i>
   <i name="EFERMI">      0.00000000</i>
  </separator>
  <separator name="writing" >
   <i type="int" name="NWRITE">     2</i>
   <i type="logical" name="LWAVE"> T  </i>
   <i type="logical" name="LDOWNSAMPLE"> F  </i>
   <i type="logical" name="LCHARG"> T  </i>
   <i type="logical" name="LPARD"> F  </i>
   <i type="logical" name="LVTOT"> F  </i>
   <i type="logical" name="LVHAR"> F  </i>
   <i type="logical" name="LELF"> F  </i>
   <i type="logical" name="LOPTICS"> F  </i>
   <v name="STM">      0.00000000      0.00000000      0.00000000      0.00000000      0.00000000      0.00000000      0.00000000</v>
  </separator>
  <separator name="performance" >
   <i type="int" name="NPAR">     1</i>
   <i type="int" name="NSIM">     4</i>
   <i type="int" name="NBLK">    -1</i>
   <i type="logical" name="LPLANE"> T  </i>
   <i type="logical" name="LSCALAPACK"> T  </i>
   <i type="logical" name="LSCAAWARE"> F  </i>
   <i type="logical" name="LSCALU"> F  </i>
   <i type="logical" name="LASYNC"> F  </i>
   <i type="logical" name="LORBITALREAL"> F  </i>
  </separator>
  <separator name="miscellaneous" >
   <i type="int" name="IDIOT">     3</i>
   <i type="int" name="PHON_NSTRUCT">    -1</i>
   <i type="logical" name="LMUSIC"> F  </i>
   <v name="POMASS">     28.08500000     16.00000000</v>
   <v name="DARWINR">      0.00000000      0.00000000</v>
   <v name="DARWINV">      1.00000000      1.00000000</v>
   <i type="logical" name="LCORR"> T  </i>
  </separator>
  <i type="logical" name="GGA_COMPAT"> T  </i>
  <i type="logical" name="LBERRY"> F  </i>
  <i type="int" name="ICORELEVEL">     0</i>
  <i type="logical" name="LDAU"> F  </i>
  <i type="int" name="I_CONSTRAINED_M">     0</i>
  <separator name="electronic exchange-correlation" >
   <i type="string" name="GGA">--</i>
   <i type="int" name="VOSKOWN">     0</i>
   <i type="logical" name="LHFCALC"> F  </i>
   <i type="string" name="PRECFOCK"></i>
   <i type="logical" name="LSYMGRAD"> F  </i>
   <i type="logical" name="LHFONE"> F  </i>
   <i type="logical" name="LRHFCALC"> F  </i>
   <i type="logical" name="LTHOMAS"> F  </i>
   <i type="logical" name="LMODELHF"> F  </i>
   <i type="logical" name="LFOCKACE"> F  </i>
   <i name="ENCUT4O">     -1.00000000</i>
   <i type="int" name="EXXOEP">     0</i>
   <i type="int" name="FOURORBIT">     0</i>
   <i name="AEXX">      0.00000000</i>
   <i name="HFALPHA">      0.00000000</i>
   <i name="MCALPHA">      0.00000000</i>
   <i name="ALDAX">      1.00000000</i>
   <i name="AGGAX">      1.00000000</i>
   <i name="ALDAC">      1.00000000</i>
   <i name="AGGAC">      1.00000000</i>
   <i type="int" name="NKREDX">     1</i>
   <i type="int" name="NKREDY">     1</i>
   <i type="int" name="NKREDZ">     1</i>
   <i type="logical" name="SHIFTRED"> F  </i>
   <i type="logical" name="ODDONLY"> F  </i>
   <i type="logical" name="EVENONLY"> F  </i>
   <i type="int" name="LMAXFOCK">     0</i>
   <i type="int" name="NMAXFOCKAE">     0</i>
   <i type="logical" name="LFOCKAEDFT"> F  </i>
   <i name="HFSCREEN">      0.00000000</i>
   <i name="HFSCREENC">      0.00000000</i>
   <i type="int" name="NBANDSGWLOW">     0</i>
  </separator>
  <separator name="vdW DFT" >
   <i type="logical" name="LUSE_VDW"> F  </i>
   <i type="int" name="IVDW_NL">     1</i>
   <i type="logical" name="LSPIN_VDW"> F  </i>
   <i name="Zab_VDW">     -0.84910000</i>
   <i name="PARAM1">      0.12340000</i>
   <i name="PARAM2">      1.00000000</i>
   <i name="PARAM3">      0.00000000</i>
  </separator>
  <separator name="model GW" >
   <i type="int" name="MODEL_GW">     0</i>
   <i name="MODEL_EPS0">      7.36922501</i>
   <i name="MODEL_ALPHA">      1.00000000</i>
  </separator>
  <separator name="linear response parameters" >
   <i type="logical" name="LEPSILON"> T  </i>
   <i type="logical" name="LRPA"> F  </i>
   <i type="logical" name="LNABLA"> F  </i>
   <i type="logical" name="LVEL"> F  </i>
   <i name="CSHIFT">      0.10000000</i>
   <i name="OMEGAMAX">     -1.00000000</i>
   <i name="DEG_THRESHOLD">      0.00200000</i>
   <i name="RTIME">     -0.10000000</i>
   <i name="WPLASMAI">      0.00000000</i>
   <v name="DFIELD">      0.00000000      0.00000000      0.00000000</v>
   <v name="WPLASMA">      0.00000000      0.00000000      0.00000000      0.00000000      0.00000000      0.00000000      0.00000000      0.00000000      0.00000000</v>
  </separator>
  <separator name="orbital magnetization" >
   <i type="logical" name="NUCIND"> F  </i>
   <v name="MAGPOS">      0.00000000      0.00000000      0.00000000</v>
   <i type="logical" name="LNICSALL"> T  </i>
   <i type="logical" name="ORBITALMAG"> F  </i>
   <i type="logical" name="LMAGBLOCH"> F  </i>
   <i type="logical" name="LCHIMAG"> F  </i>
   <i type="logical" name="LGAUGE"> T  </i>
   <i type="int" name="MAGATOM">     0</i>
   <v name="MAGDIPOL">      0.00000000      0.00000000      0.00000000</v>
   <v name="AVECCONST">      0.00000000      0.00000000      0.00000000</v>
  </separator>
  <separator name="response functions" >
   <i type="logical" name="LALL_IN_ONE"> F  </i>
   <i type="int" name="IALL_IN_ONE">    -1</i>
   <i type="int" name="NBANDS_WAVE">    -1</i>
   <i type="logical" name="LFINITE_TEMPERATURE"> F  </i>
   <i type="logical" name="LADDER"> F  </i>
   <i type="logical" name="LRPAFORCE"> F  </i>
   <i type="logical" name="LFXC"> F  </i>
   <i type="logical" name="LHARTREE"> T  </i>
   <i type="int" name="IBSE">     0</i>
   <v type="int" name="KPOINT">    -1     0     0     0</v>
   <i type="logical" name="LTCTC"> F  </i>
   <i type="logical" name="LTCTE"> F  </i>
   <i type="logical" name="LTETE"> F  </i>
   <i type="logical" name="LTRIPLET"> F  </i>
   <i type="logical" name="LFXCEPS"> F  </i>
   <i type="logical" name="LFXHEG"> F  </i>
   <i type="int" name="NATURALO">     2</i>
   <i type="logical" name="LHOLEGF"> F  </i>
   <i type="logical" name="L2ORDER"> F  </i>
   <i type="logical" name="LDMP1"> F  </i>
   <i type="logical" name="LMP2LT"> F  </i>
   <i type="logical" name="LSMP2LT"> F  </i>
   <i type="logical" name="LGWLF"> F  </i>
   <i name="ENCUTGW">     -1.60000002</i>
   <i name="ENCUTGWSOFT">     -1.60000002</i>
   <i name="ENCUTLF">     -1.00000000</i>
   <i type="logical" name="LESF_SPLINES"> F  </i>
   <i type="int" name="LMAXMP2">    -1</i>
   <i name="SCISSOR">      0.00000000</i>
   <i type="int" name="NOMEGA">     0</i>
   <i type="int" name="NOMEGAR">     0</i>
   <i type="int" name="NBANDSGW">    -1</i>
   <i type="int" name="NBANDSO">    -1</i>
   <i type="int" name="NBANDSV">    -1</i>
   <i type="int" name="NELMGW">     1</i>
   <i type="int" name="NELMHF">     1</i>
   <i type="int" name="DIM">     3</i>
   <i type="int" name="IESPILON">     4</i>
   <i type="int" name="ANTIRES">     0</i>
   <i name="OMEGAMAX">    -30.00000000</i>
   <i name="OMEGAMIN">    -30.00000000</i>
   <i name="OMEGATL">   -200.00000000</i>
   <i type="int" name="OMEGAGRID">     0</i>
   <i name="CSHIFT">     -0.10000000</i>
   <i type="logical" name="LSELFENERGY"> F  </i>
   <i type="logical" name="LSPECTRAL"> F  </i>
   <i type="logical" name="LSPECTRALGW"> F  </i>
   <i type="logical" name="LSINGLES"> F  </i>
   <i type="logical" name="LFERMIGW"> F  </i>
   <i type="logical" name="ODDONLYGW"> F  </i>
   <i type="logical" name="EVENONLYGW"> F  </i>
   <i type="int" name="NKREDLFX">     1</i>
   <i type="int" name="NKREDLFY">     1</i>
   <i type="int" name="NKREDLFZ">     1</i>
   <i type="int" name="MAXMEM">  2800</i>
   <i type="int" name="TELESCOPE">     0</i>
   <i type="int" name="NTAUPAR">    -1</i>
   <i type="int" name="NOMEGAPAR">    -1</i>
   <i name="DAMP_NEWTON">      0.80000001</i>
   <i name="LAMBDA">      1.00000000</i>
  </separator>
  <separator name="External order field" >
   <i name="OFIELD_KAPPA">      0.00000000</i>
   <v name="OFIELD_K">      0.00000000      0.00000000      0.00000000</v>
   <i name="OFIELD_Q6_NEAR">      0.00000000</i>
   <i name="OFIELD_Q6_FAR">      0.00000000</i>
   <i name="OFIELD_A">      0.00000000</i>
  </separator>
  <separator name="optional k-points parameters" >
   <i type="int" name="KPOINTS_OPT_MODE">     1</i>
   <i type="logical" name="LKPOINTS_OPT"> F  </i>
  </separator>
 </parameters>
 <atominfo>
  <atoms>       9 </atoms>
  <types>       2 </types>
  <array name="atoms" >
   <dimension dim="1">ion</dimension>
   <field type="string">element</field>
   <field type="int">atomtype</field>
   <set>
    <rc><c>Si</c><c>   1</c></rc>
    <rc><c>Si</c><c>   1</c></rc>
    <rc><c>Si</c><c>   1</c></rc>
    <rc><c>O </c><c>   2</c></rc>
    <rc><c>O </c><c>   2</c></rc>
    <rc><c>O </c><c>   2</c></rc>
    <rc><c>O </c><c>   2</c></rc>
    <rc><c>O </c><c>   2</c></rc>
    <rc><c>O </c><c>   2</c></rc>
   </set>
  </array>
  <array name="atomtypes" >
   <dimension dim="1">type</dimension>
   <field type="int">atomspertype</field>
   <field type="string">element</field>
   <field>mass</field>
   <field>valence</field>
   <field type="string">pseudopotential</field>
   <set>
    <rc><c>   3</c><c>Si</c><c>     28.08500000</c><c>      4.00000000</c><c>  PAW_PBE Si 05Jan2001                  </c></rc>
    <rc><c>   6</c><c>O </c><c>     16.00000000</c><c>      6.00000000</c><c>  PAW_PBE O 08Apr2002                   </c></rc>
   </set>
  </array>
 </atominfo>
 <structure name="initialpos" >
  <crystal>
   <varray name="basis" >
    <v>       4.87342988       0.00000000       0.00000000 </v>
    <v>      -2.43671494       4.22051408       0.00000000 </v>
    <v>       0.00000000       0.00000000       5.37418982 </v>
   </varray>
   <i name="volume">    110.53837516 </i>
   <varray name="rec_basis" >
    <v>       0.20519429       0.11846898      -0.00000000 </v>
    <v>       0.00000000       0.23693796       0.00000000 </v>
    <v>       0.00000000      -0.00000000       0.18607456 </v>
   </varray>
  </crystal>
  <varray name="positions" >
   <v>       0.46473068       0.00009546       0.66674039 </v>
   <v>       0.99990454       0.46463522       0.33340705 </v>
   <v>       0.53536478       0.53526932       0.00007372 </v>
   <v>       0.13567049       0.72402958       0.55412407 </v>
   <v>       0.27597042       0.41164091       0.22079073 </v>
   <v>       0.58835909       0.86432951       0.88745740 </v>
   <v>       0.41136981       0.27606456       0.77907986 </v>
   <v>       0.86469475       0.58863019       0.11241319 </v>
   <v>       0.72393544       0.13530525       0.44574652 </v>
  </varray>
 </structure>
 <calculation>
  <scstep>
   <time name="dav">    0.53    0.53</time>
   <time name="total">    0.57    0.55</time>
   <energy>
    <i name="alphaZ">     71.30271804 </i>
    <i name="ewald">  -1930.19439629 </i>
    <i name="hartreedc">   -909.39704569 </i>
    <i name="XCdc">    141.70968901 </i>
    <i name="pawpsdc">   2343.66826019 </i>
    <i name="pawaedc">  -2301.68043871 </i>
    <i name="eentropy">     -0.00967579 </i>
    <i name="bandstr">    -15.82028732 </i>
    <i name="atom">   2903.33737771 </i>
    <i name="e_fr_energy">    302.91620115 </i>
    <i name="e_wo_entrp">    302.92587694 </i>
    <i name="e_0_energy">    302.92103904 </i>
   </energy>
  </scstep>
  <scstep>
   <time name="dav">    0.50    0.50</time>
   <time name="total">    0.50    0.50</time>
   <energy>
    <i name="e_fr_energy">    -60.94777935 </i>
    <i name="e_wo_entrp">    -60.94777935 </i>
    <i name="e_0_energy">    -60.94777935 </i>
   </energy>
  </scstep>
  <scstep>
   <time name="dav">    0.46    0.46</time>
   <time name="total">    0.46    0.46</time>
   <energy>
    <i name="e_fr_energy">    -80.16826842 </i>
    <i name="e_wo_entrp">    -80.16826842 </i>
    <i name="e_0_energy">    -80.16826842 </i>
   </energy>
  </scstep>
  <scstep>
   <time name="dav">    0.46    0.46</time>
   <time name="total">    0.46    0.46</time>
   <energy>
    <i name="e_fr_energy">    -80.41815020 </i>
    <i name="e_wo_entrp">    -80.41815020 </i>
    <i name="e_0_energy">    -80.41815020 </i>
   </energy>
  </scstep>
  <scstep>
   <time name="dav">    0.46    0.47</time>
   <time name="total">    0.56    0.53</time>
   <energy>
    <i name="e_fr_energy">    -80.42328032 </i>
    <i name="e_wo_entrp">    -80.42328032 </i>
    <i name="e_0_energy">    -80.42328032 </i>
   </energy>
  </scstep>
  <scstep>
   <time name="diag">    0.05    0.05</time>
   <time name="diis">    0.51    0.52</time>
   <time name="orth">    0.00    0.00</time>
   <time name="total">    0.69    0.64</time>
   <energy>
    <i name="e_fr_energy">    -70.67414689 </i>
    <i name="e_wo_entrp">    -70.67414689 </i>
    <i name="e_0_energy">    -70.67414689 </i>
   </energy>
  </scstep>
  <scstep>
   <time name="diag">    0.05    0.05</time>
   <time name="diis">    0.57    0.57</time>
   <time name="orth">    0.00    0.00</time>
   <time name="total">    0.74    0.69</time>
   <energy>
    <i name="e_fr_energy">    -70.97664678 </i>
    <i name="e_wo_entrp">    -70.97664678 </i>
    <i name="e_0_energy">    -70.97664678 </i>
   </energy>
  </scstep>
  <scstep>
   <time name="diag">    0.05    0.05</time>
   <time name="diis">    0.57    0.58</time>
   <time name="orth">    0.00    0.00</time>
   <time name="total">    0.75    0.70</time>
   <energy>
    <i name="e_fr_energy">    -70.96841773 </i>
    <i name="e_wo_entrp">    -70.96841773 </i>
    <i name="e_0_energy">    -70.96841773 </i>
   </energy>
  </scstep>
  <scstep>
   <time name="diag">    0.05    0.05</time>
   <time name="diis">    0.58    0.58</time>
   <time name="orth">    0.00    0.00</time>
   <time name="total">    0.76    0.71</time>
   <energy>
    <i name="e_fr_energy">    -70.98746294 </i>
    <i name="e_wo_entrp">    -70.98746294 </i>
    <i name="e_0_energy">    -70.98746294 </i>
   </energy>
  </scstep>
  <scstep>
   <time name="diag">    0.05    0.05</time>
   <time name="diis">    0.59    0.59</time>
   <time name="orth">    0.00    0.00</time>
   <time name="total">    0.77    0.72</time>
   <energy>
    <i name="e_fr_energy">    -70.99276440 </i>
    <i name="e_wo_entrp">    -70.99276440 </i>
    <i name="e_0_energy">    -70.99276440 </i>
   </energy>
  </scstep>
  <scstep>
   <time name="diag">    0.05    0.05</time>
   <time name="diis">    0.58    0.58</time>
   <time name="orth">    0.00    0.00</time>
   <time name="total">    0.76    0.71</time>
   <energy>
    <i name="e_fr_energy">    -70.98887266 </i>
    <i name="e_wo_entrp">    -70.98887266 </i>
    <i name="e_0_energy">    -70.98887266 </i>
   </energy>
  </scstep>
  <scstep>
   <time name="diag">    0.05    0.05</time>
   <time name="diis">    0.58    0.59</time>
   <time name="orth">    0.00    0.00</time>
   <time name="total">    0.76    0.71</time>
   <energy>
    <i name="e_fr_energy">    -70.98947389 </i>
    <i name="e_wo_entrp">    -70.98947389 </i>
    <i name="e_0_energy">    -70.98947389 </i>
   </energy>
  </scstep>
  <scstep>
   <time name="diag">    0.05    0.05</time>
   <time name="diis">    0.62    0.62</time>
   <time name="orth">    0.00    0.00</time>
   <time name="total">    0.80    0.74</time>
   <energy>
    <i name="e_fr_energy">    -70.98923345 </i>
    <i name="e_wo_entrp">    -70.98923345 </i>
    <i name="e_0_energy">    -70.98923345 </i>
   </energy>
  </scstep>
  <scstep>
   <time name="diag">    0.05    0.05</time>
   <time name="diis">    0.59    0.59</time>
   <time name="orth">    0.00    0.00</time>
   <time name="total">    0.77    0.72</time>
   <energy>
    <i name="e_fr_energy">    -70.98919249 </i>
    <i name="e_wo_entrp">    -70.98919249 </i>
    <i name="e_0_energy">    -70.98919249 </i>
   </energy>
  </scstep>
  <scstep>
   <time name="diag">    0.05    0.05</time>
   <time name="diis">    0.65    0.65</time>
   <time name="orth">    0.00    0.00</time>
   <time name="total">    0.83    0.78</time>
   <energy>
    <i name="e_fr_energy">    -70.98918973 </i>
    <i name="e_wo_entrp">    -70.98918973 </i>
    <i name="e_0_energy">    -70.98918973 </i>
   </energy>
  </scstep>
  <scstep>
   <time name="diag">    0.05    0.05</time>
   <time name="diis">    0.59    0.59</time>
   <time name="orth">    0.00    0.00</time>
   <time name="total">    0.77    0.71</time>
   <energy>
    <i name="e_fr_energy">    -70.98918838 </i>
    <i name="e_wo_entrp">    -70.98918838 </i>
    <i name="e_0_energy">    -70.98918838 </i>
   </energy>
  </scstep>
  <scstep>
   <time name="diag">    0.05    0.05</time>
   <time name="diis">    0.58    0.59</time>
   <time name="orth">    0.00    0.00</time>
   <time name="total">    0.77    0.71</time>
   <energy>
    <i name="e_fr_energy">    -70.98918861 </i>
    <i name="e_wo_entrp">    -70.98918861 </i>
    <i name="e_0_energy">    -70.98918861 </i>
   </energy>
  </scstep>
  <scstep>
   <time name="diag">    0.05    0.05</time>
   <time name="diis">    0.62    0.63</time>
   <time name="orth">    0.00    0.00</time>
   <time name="total">    0.81    0.75</time>
   <energy>
    <i name="e_fr_energy">    -70.98918880 </i>
    <i name="e_wo_entrp">    -70.98918880 </i>
    <i name="e_0_energy">    -70.98918880 </i>
   </energy>
  </scstep>
  <scstep>
   <time name="diag">    0.05    0.05</time>
   <time name="diis">    0.59    0.59</time>
   <time name="orth">    0.00    0.00</time>
   <time name="total">    0.78    0.72</time>
   <energy>
    <i name="e_fr_energy">    -70.98918876 </i>
    <i name="e_wo_entrp">    -70.98918876 </i>
    <i name="e_0_energy">    -70.98918876 </i>
   </energy>
  </scstep>
  <scstep>
   <time name="diag">    0.05    0.05</time>
   <time name="diis">    0.58    0.59</time>
   <time name="orth">    0.00    0.00</time>
   <time name="total">    0.77    0.71</time>
   <energy>
    <i name="e_fr_energy">    -70.98918880 </i>
    <i name="e_wo_entrp">    -70.98918880 </i>
    <i name="e_0_energy">    -70.98918880 </i>
   </energy>
  </scstep>
  <scstep>
   <time name="diag">    0.05    0.05</time>
   <time name="diis">    0.39    0.40</time>
   <time name="orth">    0.00    0.00</time>
   <time name="total">    0.58    0.52</time>
   <energy>
    <i name="e_fr_energy">    -70.98918878 </i>
    <i name="e_wo_entrp">    -70.98918878 </i>
    <i name="e_0_energy">    -70.98918878 </i>
   </energy>
  </scstep>
  <scstep>
   <time name="diag">    0.05    0.05</time>
   <time name="diis">    0.39    0.39</time>
   <time name="orth">    0.00    0.00</time>
   <time name="total">    0.47    0.45</time>
   <energy>
    <i name="alphaZ">     71.30271804 </i>
    <i name="ewald">  -1930.19439629 </i>
    <i name="hartreedc">  -1040.55641361 </i>
    <i name="XCdc">    150.68540776 </i>
    <i name="pawpsdc">   8045.43183210 </i>
    <i name="pawaedc">  -8005.80962117 </i>
    <i name="eentropy">     -0.00000000 </i>
    <i name="bandstr">   -265.18609331 </i>
    <i name="atom">   2903.33737771 </i>
    <i name="e_fr_energy">    -70.98918878 </i>
    <i name="e_wo_entrp">    -70.98918878 </i>
    <i name="e_0_energy">    -70.98918878 </i>
   </energy>
  </scstep>
  <structure>
   <crystal>
    <varray name="basis" >
     <v>       4.87342988       0.00000000       0.00000000 </v>
     <v>      -2.43671494       4.22051408       0.00000000 </v>
     <v>       0.00000000       0.00000000       5.37418982 </v>
    </varray>
    <i name="volume">    110.53837516 </i>
    <varray name="rec_basis" >
     <v>       0.20519429       0.11846898      -0.00000000 </v>
     <v>       0.00000000       0.23693796       0.00000000 </v>
     <v>       0.00000000      -0.00000000       0.18607456 </v>
    </varray>
   </crystal>
   <varray name="positions" >
    <v>       0.46473068       0.00009546       0.66674039 </v>
    <v>       0.99990454       0.46463522       0.33340705 </v>
    <v>       0.53536478       0.53526932       0.00007372 </v>
    <v>       0.13567049       0.72402958       0.55412407 </v>
    <v>       0.27597042       0.41164091       0.22079073 </v>
    <v>       0.58835909       0.86432951       0.88745740 </v>
    <v>       0.41136981       0.27606456       0.77907986 </v>
    <v>       0.86469475       0.58863019       0.11241319 </v>
    <v>       0.72393544       0.13530525       0.44574652 </v>
   </varray>
  </structure>
  <varray name="forces" >
   <v>       0.01813648      -0.00953329      -0.00938097 </v>
   <v>      -0.00081216       0.02047330      -0.00938097 </v>
   <v>      -0.01732431      -0.01094000      -0.00938097 </v>
   <v>      -0.28567449      -0.00377373       0.15806979 </v>
   <v>       0.14610539      -0.24551450       0.15806979 </v>
   <v>       0.13956910       0.24928823       0.15806979 </v>
   <v>      -0.26475960      -0.00158202      -0.14868882 </v>
   <v>       0.13100973       0.23007955      -0.14868882 </v>
   <v>       0.13374987      -0.22849753      -0.14868882 </v>
  </varray>
  <varray name="stress" >
   <v>      71.97321764       0.00000108       0.00000000 </v>
   <v>      -0.00000108      71.97321764       0.00000000 </v>
   <v>       0.00000000       0.00000000      73.62430724 </v>
  </varray>
  <energy>
   <i name="e_fr_energy">    -70.98918878 </i>
   <i name="e_wo_entrp">    -70.98918878 </i>
   <i name="e_0_energy">    -70.98918878 </i>
  </energy>
  <scstep>
   <time name="total">    8.47    1.71</time>
   <energy>
    <i name="e_fr_energy">   -182.68363682 </i>
    <i name="e_wo_entrp">   -182.68363682 </i>
    <i name="e_0_energy">   -182.68363682 </i>
   </energy>
  </scstep>
  <scstep>
   <time name="total">    8.36    1.53</time>
   <energy>
    <i name="e_fr_energy">   -172.55211093 </i>
    <i name="e_wo_entrp">   -172.55211093 </i>
    <i name="e_0_energy">   -172.55211093 </i>
   </energy>
  </scstep>
  <scstep>
   <time name="total">    8.31    1.52</time>
   <energy>
    <i name="e_fr_energy">   -172.69850903 </i>
    <i name="e_wo_entrp">   -172.69850903 </i>
    <i name="e_0_energy">   -172.69850903 </i>
   </energy>
  </scstep>
  <scstep>
   <time name="total">    0.56    0.56</time>
   <energy>
    <i name="e_fr_energy">   -172.70593269 </i>
    <i name="e_wo_entrp">   -172.70593269 </i>
    <i name="e_0_energy">   -172.70593269 </i>
   </energy>
  </scstep>
  <scstep>
   <time name="total">    0.56    0.57</time>
   <energy>
    <i name="e_fr_energy">   -172.70610200 </i>
    <i name="e_wo_entrp">   -172.70610200 </i>
    <i name="e_0_energy">   -172.70610200 </i>
   </energy>
  </scstep>
  <scstep>
   <time name="total">    0.57    0.57</time>
   <energy>
    <i name="e_fr_energy">   -172.70611327 </i>
    <i name="e_wo_entrp">   -172.70611327 </i>
    <i name="e_0_energy">   -172.70611327 </i>
   </energy>
  </scstep>
  <scstep>
   <time name="total">    0.56    0.56</time>
   <energy>
    <i name="e_fr_energy">   -172.70611349 </i>
    <i name="e_wo_entrp">   -172.70611349 </i>
    <i name="e_0_energy">   -172.70611349 </i>
   </energy>
  </scstep>
  <scstep>
   <time name="total">    0.56    0.56</time>
   <energy>
    <i name="e_fr_energy">   -172.70611387 </i>
    <i name="e_wo_entrp">   -172.70611387 </i>
    <i name="e_0_energy">   -172.70611387 </i>
   </energy>
  </scstep>
  <scstep>
   <time name="total">    0.56    0.56</time>
   <energy>
    <i name="e_fr_energy">   -172.70611459 </i>
    <i name="e_wo_entrp">   -172.70611459 </i>
    <i name="e_0_energy">   -172.70611459 </i>
   </energy>
  </scstep>
  <scstep>
   <time name="total">    0.56    0.56</time>
   <energy>
    <i name="e_fr_energy">   -172.70611473 </i>
    <i name="e_wo_entrp">   -172.70611473 </i>
    <i name="e_0_energy">   -172.70611473 </i>
   </energy>
  </scstep>
  <scstep>
   <time name="total">    8.59    1.72</time>
   <energy>
    <i name="e_fr_energy">   -182.13265542 </i>
    <i name="e_wo_entrp">   -182.13265542 </i>
    <i name="e_0_energy">   -182.13265542 </i>
   </energy>
  </scstep>
  <scstep>
   <time name="total">    8.30    1.51</time>
   <energy>
    <i name="e_fr_energy">   -172.66881232 </i>
    <i name="e_wo_entrp">   -172.66881232 </i>
    <i name="e_0_energy">   -172.66881232 </i>
   </energy>
  </scstep>
  <scstep>
   <time name="total">    8.36    1.53</time>
   <energy>
    <i name="e_fr_energy">   -172.81159387 </i>
    <i name="e_wo_entrp">   -172.81159387 </i>
    <i name="e_0_energy">   -172.81159387 </i>
   </energy>
  </scstep>
  <scstep>
   <time name="total">    0.56    0.56</time>
   <energy>
    <i name="e_fr_energy">   -172.81891146 </i>
    <i name="e_wo_entrp">   -172.81891146 </i>
    <i name="e_0_energy">   -172.81891146 </i>
   </energy>
  </scstep>
  <scstep>
   <time name="total">    0.56    0.56</time>
   <energy>
    <i name="e_fr_energy">   -172.81909692 </i>
    <i name="e_wo_entrp">   -172.81909692 </i>
    <i name="e_0_energy">   -172.81909692 </i>
   </energy>
  </scstep>
  <scstep>
   <time name="total">    0.56    0.56</time>
   <energy>
    <i name="e_fr_energy">   -172.81911301 </i>
    <i name="e_wo_entrp">   -172.81911301 </i>
    <i name="e_0_energy">   -172.81911301 </i>
   </energy>
  </scstep>
  <scstep>
   <time name="total">    0.56    0.56</time>
   <energy>
    <i name="e_fr_energy">   -172.81911399 </i>
    <i name="e_wo_entrp">   -172.81911399 </i>
    <i name="e_0_energy">   -172.81911399 </i>
   </energy>
  </scstep>
  <scstep>
   <time name="total">    0.56    0.57</time>
   <energy>
    <i name="e_fr_energy">   -172.81911361 </i>
    <i name="e_wo_entrp">   -172.81911361 </i>
    <i name="e_0_energy">   -172.81911361 </i>
   </energy>
  </scstep>
  <scstep>
   <time name="total">    0.57    0.58</time>
   <energy>
    <i name="e_fr_energy">   -172.81911222 </i>
    <i name="e_wo_entrp">   -172.81911222 </i>
    <i name="e_0_energy">   -172.81911222 </i>
   </energy>
  </scstep>
  <scstep>
   <time name="total">    0.56    0.56</time>
   <energy>
    <i name="e_fr_energy">   -172.81911173 </i>
    <i name="e_wo_entrp">   -172.81911173 </i>
    <i name="e_0_energy">   -172.81911173 </i>
   </energy>
  </scstep>
  <scstep>
   <time name="total">    8.59    1.73</time>
   <energy>
    <i name="e_fr_energy">   -182.14560733 </i>
    <i name="e_wo_entrp">   -182.14560733 </i>
    <i name="e_0_energy">   -182.14560733 </i>
   </energy>
  </scstep>
  <scstep>
   <time name="total">    8.40    1.52</time>
   <energy>
    <i name="e_fr_energy">   -172.55626436 </i>
    <i name="e_wo_entrp">   -172.55626436 </i>
    <i name="e_0_energy">   -172.55626436 </i>
   </energy>
  </scstep>
  <scstep>
   <time name="total">    8.49    1.55</time>
   <energy>
    <i name="e_fr_energy">   -172.70907744 </i>
    <i name="e_wo_entrp">   -172.70907744 </i>
    <i name="e_0_energy">   -172.70907744 </i>
   </energy>
  </scstep>
  <scstep>
   <time name="total">    0.56    0.56</time>
   <energy>
    <i name="e_fr_energy">   -172.71644437 </i>
    <i name="e_wo_entrp">   -172.71644437 </i>
    <i name="e_0_energy">   -172.71644437 </i>
   </energy>
  </scstep>
  <scstep>
   <time name="total">    0.57    0.57</time>
   <energy>
    <i name="e_fr_energy">   -172.71660194 </i>
    <i name="e_wo_entrp">   -172.71660194 </i>
    <i name="e_0_energy">   -172.71660194 </i>
   </energy>
  </scstep>
  <scstep>
   <time name="total">    0.56    0.56</time>
   <energy>
    <i name="e_fr_energy">   -172.71661026 </i>
    <i name="e_wo_entrp">   -172.71661026 </i>
    <i name="e_0_energy">   -172.71661026 </i>
   </energy>
  </scstep>
  <scstep>
   <time name="total">    0.56    0.57</time>
   <energy>
    <i name="e_fr_energy">   -172.71660725 </i>
    <i name="e_wo_entrp">   -172.71660725 </i>
    <i name="e_0_energy">   -172.71660725 </i>
   </energy>
  </scstep>
  <scstep>
   <time name="total">    0.56    0.56</time>
   <energy>
    <i name="e_fr_energy">   -172.71661651 </i>
    <i name="e_wo_entrp">   -172.71661651 </i>
    <i name="e_0_energy">   -172.71661651 </i>
   </energy>
  </scstep>
  <scstep>
   <time name="total">    0.55    0.56</time>
   <energy>
    <i name="e_fr_energy">   -172.71662108 </i>
    <i name="e_wo_entrp">   -172.71662108 </i>
    <i name="e_0_energy">   -172.71662108 </i>
   </energy>
  </scstep>
  <scstep>
   <time name="total">    0.55    0.56</time>
   <energy>
    <i name="e_fr_energy">   -172.71662257 </i>
    <i name="e_wo_entrp">   -172.71662257 </i>
    <i name="e_0_energy">   -172.71662257 </i>
   </energy>
  </scstep>
  <scstep>
   <time name="total">    1.38    0.83</time>
   <energy>
    <i name="e_fr_energy">     -0.48219089 </i>
    <i name="e_wo_entrp">     -0.48219089 </i>
    <i name="e_0_energy">     -0.48219089 </i>
   </energy>
  </scstep>
  <scstep>
   <time name="total">    1.35    0.81</time>
   <energy>
    <i name="e_fr_energy">     -0.48461432 </i>
    <i name="e_wo_entrp">     -0.48461432 </i>
    <i name="e_0_energy">     -0.48461432 </i>
   </energy>
  </scstep>
  <scstep>
   <time name="total">    1.36    0.81</time>
   <energy>
    <i name="e_fr_energy">     -0.48479675 </i>
    <i name="e_wo_entrp">     -0.48479675 </i>
    <i name="e_0_energy">     -0.48479675 </i>
   </energy>
  </scstep>
  <scstep>
   <time name="total">    1.36    0.82</time>
   <energy>
    <i name="e_fr_energy">     -0.48480537 </i>
    <i name="e_wo_entrp">     -0.48480537 </i>
    <i name="e_0_energy">     -0.48480537 </i>
   </energy>
  </scstep>
  <scstep>
   <time name="total">    1.37    0.82</time>
   <energy>
    <i name="e_fr_energy">     -0.48480567 </i>
    <i name="e_wo_entrp">     -0.48480567 </i>
    <i name="e_0_energy">     -0.48480567 </i>
   </energy>
  </scstep>
  <scstep>
   <time name="total">    1.33    0.78</time>
   <energy>
    <i name="e_fr_energy">     -0.48480569 </i>
    <i name="e_wo_entrp">     -0.48480569 </i>
    <i name="e_0_energy">     -0.48480569 </i>
   </energy>
  </scstep>
  <scstep>
   <time name="total">    1.29    0.74</time>
   <energy>
    <i name="e_fr_energy">     -0.48480570 </i>
    <i name="e_wo_entrp">     -0.48480570 </i>
    <i name="e_0_energy">     -0.48480570 </i>
   </energy>
  </scstep>
  <scstep>
   <time name="total">    1.27    0.73</time>
   <energy>
    <i name="e_fr_energy">     -0.48480570 </i>
    <i name="e_wo_entrp">     -0.48480570 </i>
    <i name="e_0_energy">     -0.48480570 </i>
   </energy>
  </scstep>
  <scstep>
   <time name="total">    1.26    0.72</time>
   <energy>
    <i name="e_fr_energy">     -0.48480570 </i>
    <i name="e_wo_entrp">     -0.48480570 </i>
    <i name="e_0_energy">     -0.48480570 </i>
   </energy>
  </scstep>
  <scstep>
   <time name="total">    1.26    0.72</time>
   <energy>
    <i name="e_fr_energy">     -0.48480570 </i>
    <i name="e_wo_entrp">     -0.48480570 </i>
    <i name="e_0_energy">     -0.48480570 </i>
   </energy>
  </scstep>
  <scstep>
   <time name="total">    1.35    0.81</time>
   <energy>
    <i name="e_fr_energy">     -0.48392674 </i>
    <i name="e_wo_entrp">     -0.48392674 </i>
    <i name="e_0_energy">     -0.48392674 </i>
   </energy>
  </scstep>
  <scstep>
   <time name="total">    1.36    0.81</time>
   <energy>
    <i name="e_fr_energy">     -0.48613001 </i>
    <i name="e_wo_entrp">     -0.48613001 </i>
    <i name="e_0_energy">     -0.48613001 </i>
   </energy>
  </scstep>
  <scstep>
   <time name="total">    1.35    0.81</time>
   <energy>
    <i name="e_fr_energy">     -0.48632277 </i>
    <i name="e_wo_entrp">     -0.48632277 </i>
    <i name="e_0_energy">     -0.48632277 </i>
   </energy>
  </scstep>
  <scstep>
   <time name="total">    1.36    0.82</time>
   <energy>
    <i name="e_fr_energy">     -0.48633153 </i>
    <i name="e_wo_entrp">     -0.48633153 </i>
    <i name="e_0_energy">     -0.48633153 </i>
   </energy>
  </scstep>
  <scstep>
   <time name="total">    1.35    0.81</time>
   <energy>
    <i name="e_fr_energy">     -0.48633185 </i>
    <i name="e_wo_entrp">     -0.48633185 </i>
    <i name="e_0_energy">     -0.48633185 </i>
   </energy>
  </scstep>
  <scstep>
   <time name="total">    1.32    0.78</time>
   <energy>
    <i name="e_fr_energy">     -0.48633187 </i>
    <i name="e_wo_entrp">     -0.48633187 </i>
    <i name="e_0_energy">     -0.48633187 </i>
   </energy>
  </scstep>
  <scstep>
   <time name="total">    1.27    0.73</time>
   <energy>
    <i name="e_fr_energy">     -0.48633187 </i>
    <i name="e_wo_entrp">     -0.48633187 </i>
    <i name="e_0_energy">     -0.48633187 </i>
   </energy>
  </scstep>
  <scstep>
   <time name="total">    1.27    0.73</time>
   <energy>
    <i name="e_fr_energy">     -0.48633187 </i>
    <i name="e_wo_entrp">     -0.48633187 </i>
    <i name="e_0_energy">     -0.48633187 </i>
   </energy>
  </scstep>
  <scstep>
   <time name="total">    1.29    0.73</time>
   <energy>
    <i name="e_fr_energy">     -0.48633187 </i>
    <i name="e_wo_entrp">     -0.48633187 </i>
    <i name="e_0_energy">     -0.48633187 </i>
   </energy>
  </scstep>
  <scstep>
   <time name="total">    1.25    0.71</time>
   <energy>
    <i name="e_fr_energy">     -0.48633187 </i>
    <i name="e_wo_entrp">     -0.48633187 </i>
    <i name="e_0_energy">     -0.48633187 </i>
   </energy>
  </scstep>
  <scstep>
   <time name="total">    1.35    0.81</time>
   <energy>
    <i name="e_fr_energy">     -0.48761158 </i>
    <i name="e_wo_entrp">     -0.48761158 </i>
    <i name="e_0_energy">     -0.48761158 </i>
   </energy>
  </scstep>
  <scstep>
   <time name="total">    1.34    0.80</time>
   <energy>
    <i name="e_fr_energy">     -0.48965566 </i>
    <i name="e_wo_entrp">     -0.48965566 </i>
    <i name="e_0_energy">     -0.48965566 </i>
   </energy>
  </scstep>
  <scstep>
   <time name="total">    1.35    0.81</time>
   <energy>
    <i name="e_fr_energy">     -0.48984670 </i>
    <i name="e_wo_entrp">     -0.48984670 </i>
    <i name="e_0_energy">     -0.48984670 </i>
   </energy>
  </scstep>
  <scstep>
   <time name="total">    1.35    0.81</time>
   <energy>
    <i name="e_fr_energy">     -0.48985563 </i>
    <i name="e_wo_entrp">     -0.48985563 </i>
    <i name="e_0_energy">     -0.48985563 </i>
   </energy>
  </scstep>
  <scstep>
   <time name="total">    1.35    0.81</time>
   <energy>
    <i name="e_fr_energy">     -0.48985593 </i>
    <i name="e_wo_entrp">     -0.48985593 </i>
    <i name="e_0_energy">     -0.48985593 </i>
   </energy>
  </scstep>
  <scstep>
   <time name="total">    1.31    0.78</time>
   <energy>
    <i name="e_fr_energy">     -0.48985596 </i>
    <i name="e_wo_entrp">     -0.48985596 </i>
    <i name="e_0_energy">     -0.48985596 </i>
   </energy>
  </scstep>
  <scstep>
   <time name="total">    1.27    0.74</time>
   <energy>
    <i name="e_fr_energy">     -0.48985596 </i>
    <i name="e_wo_entrp">     -0.48985596 </i>
    <i name="e_0_energy">     -0.48985596 </i>
   </energy>
  </scstep>
  <scstep>
   <time name="total">    1.29    0.72</time>
   <energy>
    <i name="e_fr_energy">     -0.48985596 </i>
    <i name="e_wo_entrp">     -0.48985596 </i>
    <i name="e_0_energy">     -0.48985596 </i>
   </energy>
  </scstep>
  <scstep>
   <time name="total">    1.25    0.71</time>
   <energy>
    <i name="e_fr_energy">     -0.48985596 </i>
    <i name="e_wo_entrp">     -0.48985596 </i>
    <i name="e_0_energy">     -0.48985596 </i>
   </energy>
  </scstep>
  <scstep>
   <time name="total">    1.25    0.71</time>
   <energy>
    <i name="e_fr_energy">     -0.48985596 </i>
    <i name="e_wo_entrp">     -0.48985596 </i>
    <i name="e_0_energy">     -0.48985596 </i>
   </energy>
  </scstep>
  <varray name="dielectric_ipa" >
   <v>       2.58976262      -0.00000028       0.00000000 </v>
   <v>       0.00000028       2.58976262      -0.00000000 </v>
   <v>       0.00000000       0.00000000       2.60380289 </v>
  </varray>
  <kpoints>
   <generation param="Gamma">
    <v type="int" name="divisions">       4        4        4 </v>
    <v name="usershift">      0.00000000       0.00000000       0.00000000 </v>
    <v name="genvec1">      0.25000000       0.00000000       0.00000000 </v>
    <v name="genvec2">      0.00000000       0.25000000       0.00000000 </v>
    <v name="genvec3">      0.00000000       0.00000000       0.25000000 </v>
    <v name="shift">      0.00000000       0.00000000       0.00000000 </v>
   </generation>
   <varray name="kpointlist" >
    <v>       0.00000000       0.00000000       0.00000000 </v>
    <v>       0.25000000       0.00000000       0.00000000 </v>
    <v>       0.00000000       0.25000000       0.00000000 </v>
    <v>      -0.25000000       0.25000000       0.00000000 </v>
    <v>       0.50000000       0.00000000       0.00000000 </v>
    <v>       0.00000000       0.50000000       0.00000000 </v>
    <v>       0.50000000       0.50000000       0.00000000 </v>
    <v>       0.25000000       0.25000000       0.00000000 </v>
    <v>      -0.25000000       0.50000000       0.00000000 </v>
    <v>       0.50000000       0.25000000       0.00000000 </v>
    <v>       0.00000000       0.00000000       0.25000000 </v>
    <v>       0.25000000       0.00000000       0.25000000 </v>
    <v>       0.00000000       0.25000000       0.25000000 </v>
    <v>      -0.25000000       0.25000000       0.25000000 </v>
    <v>      -0.25000000       0.00000000       0.25000000 </v>
    <v>       0.00000000      -0.25000000       0.25000000 </v>
    <v>       0.25000000      -0.25000000       0.25000000 </v>
    <v>       0.50000000       0.00000000       0.25000000 </v>
    <v>       0.00000000       0.50000000       0.25000000 </v>
    <v>       0.50000000       0.50000000       0.25000000 </v>
    <v>       0.25000000       0.25000000       0.25000000 </v>
    <v>      -0.25000000       0.50000000       0.25000000 </v>
    <v>       0.50000000       0.25000000       0.25000000 </v>
    <v>      -0.25000000      -0.25000000       0.25000000 </v>
    <v>       0.25000000       0.50000000       0.25000000 </v>
    <v>       0.50000000      -0.25000000       0.25000000 </v>
    <v>       0.00000000       0.00000000       0.50000000 </v>
    <v>       0.25000000       0.00000000       0.50000000 </v>
    <v>       0.00000000       0.25000000       0.50000000 </v>
    <v>      -0.25000000       0.25000000       0.50000000 </v>
    <v>       0.50000000       0.00000000       0.50000000 </v>
    <v>       0.00000000       0.50000000       0.50000000 </v>
    <v>       0.50000000       0.50000000       0.50000000 </v>
    <v>       0.25000000       0.25000000       0.50000000 </v>
    <v>      -0.25000000       0.50000000       0.50000000 </v>
    <v>       0.50000000       0.25000000       0.50000000 </v>
   </varray>
   <varray name="weights" >
    <v>       0.01562500 </v>
    <v>       0.03125000 </v>
    <v>       0.03125000 </v>
    <v>       0.03125000 </v>
    <v>       0.01562500 </v>
    <v>       0.01562500 </v>
    <v>       0.01562500 </v>
    <v>       0.03125000 </v>
    <v>       0.03125000 </v>
    <v>       0.03125000 </v>
    <v>       0.03125000 </v>
    <v>       0.03125000 </v>
    <v>       0.03125000 </v>
    <v>       0.03125000 </v>
    <v>       0.03125000 </v>
    <v>       0.03125000 </v>
    <v>       0.03125000 </v>
    <v>       0.03125000 </v>
    <v>       0.03125000 </v>
    <v>       0.03125000 </v>
    <v>       0.03125000 </v>
    <v>       0.03125000 </v>
    <v>       0.03125000 </v>
    <v>       0.03125000 </v>
    <v>       0.03125000 </v>
    <v>       0.03125000 </v>
    <v>       0.01562500 </v>
    <v>       0.03125000 </v>
    <v>       0.03125000 </v>
    <v>       0.03125000 </v>
    <v>       0.01562500 </v>
    <v>       0.01562500 </v>
    <v>       0.01562500 </v>
    <v>       0.03125000 </v>
    <v>       0.03125000 </v>
    <v>       0.03125000 </v>
   </varray>
  </kpoints>
  <scstep>
   <time name="total">    2.44    1.90</time>
   <energy>
    <i name="e_fr_energy">     -0.48312401 </i>
    <i name="e_wo_entrp">     -0.48312401 </i>
    <i name="e_0_energy">     -0.48312401 </i>
   </energy>
  </scstep>
  <scstep>
   <time name="total">    2.51    1.95</time>
   <energy>
    <i name="e_fr_energy">     -0.48537276 </i>
    <i name="e_wo_entrp">     -0.48537276 </i>
    <i name="e_0_energy">     -0.48537276 </i>
   </energy>
  </scstep>
  <scstep>
   <time name="total">    2.53    1.97</time>
   <energy>
    <i name="e_fr_energy">     -0.46520197 </i>
    <i name="e_wo_entrp">     -0.46520197 </i>
    <i name="e_0_energy">     -0.46520197 </i>
   </energy>
  </scstep>
  <scstep>
   <time name="total">    2.53    1.97</time>
   <energy>
    <i name="e_fr_energy">     -0.47601763 </i>
    <i name="e_wo_entrp">     -0.47601763 </i>
    <i name="e_0_energy">     -0.47601763 </i>
   </energy>
  </scstep>
  <scstep>
   <time name="total">    2.57    1.97</time>
   <energy>
    <i name="e_fr_energy">     -0.49377213 </i>
    <i name="e_wo_entrp">     -0.49377213 </i>
    <i name="e_0_energy">     -0.49377213 </i>
   </energy>
  </scstep>
  <scstep>
   <time name="total">    2.48    1.92</time>
   <energy>
    <i name="e_fr_energy">     -0.49670118 </i>
    <i name="e_wo_entrp">     -0.49670118 </i>
    <i name="e_0_energy">     -0.49670118 </i>
   </energy>
  </scstep>
  <scstep>
   <time name="total">    2.52    1.96</time>
   <energy>
    <i name="e_fr_energy">     -0.49693615 </i>
    <i name="e_wo_entrp">     -0.49693615 </i>
    <i name="e_0_energy">     -0.49693615 </i>
   </energy>
  </scstep>
  <scstep>
   <time name="total">    2.52    1.96</time>
   <energy>
    <i name="e_fr_energy">     -0.49716835 </i>
    <i name="e_wo_entrp">     -0.49716835 </i>
    <i name="e_0_energy">     -0.49716835 </i>
   </energy>
  </scstep>
  <scstep>
   <time name="total">    2.50    1.95</time>
   <energy>
    <i name="e_fr_energy">     -0.49723228 </i>
    <i name="e_wo_entrp">     -0.49723228 </i>
    <i name="e_0_energy">     -0.49723228 </i>
   </energy>
  </scstep>
  <scstep>
   <time name="total">    2.52    1.96</time>
   <energy>
    <i name="e_fr_energy">     -0.49722737 </i>
    <i name="e_wo_entrp">     -0.49722737 </i>
    <i name="e_0_energy">     -0.49722737 </i>
   </energy>
  </scstep>
  <scstep>
   <time name="total">    2.50    1.94</time>
   <energy>
    <i name="e_fr_energy">     -0.49722835 </i>
    <i name="e_wo_entrp">     -0.49722835 </i>
    <i name="e_0_energy">     -0.49722835 </i>
   </energy>
  </scstep>
  <scstep>
   <time name="total">    2.43    1.88</time>
   <energy>
    <i name="e_fr_energy">     -0.49722836 </i>
    <i name="e_wo_entrp">     -0.49722836 </i>
    <i name="e_0_energy">     -0.49722836 </i>
   </energy>
  </scstep>
  <scstep>
   <time name="total">    2.44    1.88</time>
   <energy>
    <i name="e_fr_energy">     -0.49722834 </i>
    <i name="e_wo_entrp">     -0.49722834 </i>
    <i name="e_0_energy">     -0.49722834 </i>
   </energy>
  </scstep>
  <scstep>
   <time name="total">    2.50    1.90</time>
   <energy>
    <i name="e_fr_energy">     -0.49722827 </i>
    <i name="e_wo_entrp">     -0.49722827 </i>
    <i name="e_0_energy">     -0.49722827 </i>
   </energy>
  </scstep>
  <kpoints>
   <generation param="Gamma">
    <v type="int" name="divisions">       4        4        4 </v>
    <v name="usershift">      0.00000000       0.00000000       0.00000000 </v>
    <v name="genvec1">      0.25000000       0.00000000       0.00000000 </v>
    <v name="genvec2">      0.00000000       0.25000000       0.00000000 </v>
    <v name="genvec3">      0.00000000       0.00000000       0.25000000 </v>
    <v name="shift">      0.00000000       0.00000000       0.00000000 </v>
   </generation>
   <varray name="kpointlist" >
    <v>       0.00000000       0.00000000       0.00000000 </v>
    <v>       0.25000000       0.00000000       0.00000000 </v>
    <v>       0.00000000       0.25000000       0.00000000 </v>
    <v>      -0.25000000       0.25000000       0.00000000 </v>
    <v>       0.50000000       0.00000000       0.00000000 </v>
    <v>       0.00000000       0.50000000       0.00000000 </v>
    <v>       0.50000000       0.50000000       0.00000000 </v>
    <v>       0.25000000       0.25000000       0.00000000 </v>
    <v>      -0.25000000       0.50000000       0.00000000 </v>
    <v>       0.50000000       0.25000000       0.00000000 </v>
    <v>       0.00000000       0.00000000       0.25000000 </v>
    <v>       0.25000000       0.00000000       0.25000000 </v>
    <v>       0.00000000       0.25000000       0.25000000 </v>
    <v>      -0.25000000       0.25000000       0.25000000 </v>
    <v>      -0.25000000       0.00000000       0.25000000 </v>
    <v>       0.00000000      -0.25000000       0.25000000 </v>
    <v>       0.25000000      -0.25000000       0.25000000 </v>
    <v>       0.50000000       0.00000000       0.25000000 </v>
    <v>       0.00000000       0.50000000       0.25000000 </v>
    <v>       0.50000000       0.50000000       0.25000000 </v>
    <v>       0.25000000       0.25000000       0.25000000 </v>
    <v>      -0.25000000       0.50000000       0.25000000 </v>
    <v>       0.50000000       0.25000000       0.25000000 </v>
    <v>      -0.25000000      -0.25000000       0.25000000 </v>
    <v>       0.25000000       0.50000000       0.25000000 </v>
    <v>       0.50000000      -0.25000000       0.25000000 </v>
    <v>       0.00000000       0.00000000       0.50000000 </v>
    <v>       0.25000000       0.00000000       0.50000000 </v>
    <v>       0.00000000       0.25000000       0.50000000 </v>
    <v>      -0.25000000       0.25000000       0.50000000 </v>
    <v>       0.50000000       0.00000000       0.50000000 </v>
    <v>       0.00000000       0.50000000       0.50000000 </v>
    <v>       0.50000000       0.50000000       0.50000000 </v>
    <v>       0.25000000       0.25000000       0.50000000 </v>
    <v>      -0.25000000       0.50000000       0.50000000 </v>
    <v>       0.50000000       0.25000000       0.50000000 </v>
   </varray>
   <varray name="weights" >
    <v>       0.01562500 </v>
    <v>       0.03125000 </v>
    <v>       0.03125000 </v>
    <v>       0.03125000 </v>
    <v>       0.01562500 </v>
    <v>       0.01562500 </v>
    <v>       0.01562500 </v>
    <v>       0.03125000 </v>
    <v>       0.03125000 </v>
    <v>       0.03125000 </v>
    <v>       0.03125000 </v>
    <v>       0.03125000 </v>
    <v>       0.03125000 </v>
    <v>       0.03125000 </v>
    <v>       0.03125000 </v>
    <v>       0.03125000 </v>
    <v>       0.03125000 </v>
    <v>       0.03125000 </v>
    <v>       0.03125000 </v>
    <v>       0.03125000 </v>
    <v>       0.03125000 </v>
    <v>       0.03125000 </v>
    <v>       0.03125000 </v>
    <v>       0.03125000 </v>
    <v>       0.03125000 </v>
    <v>       0.03125000 </v>
    <v>       0.01562500 </v>
    <v>       0.03125000 </v>
    <v>       0.03125000 </v>
    <v>       0.03125000 </v>
    <v>       0.01562500 </v>
    <v>       0.01562500 </v>
    <v>       0.01562500 </v>
    <v>       0.03125000 </v>
    <v>       0.03125000 </v>
    <v>       0.03125000 </v>
   </varray>
  </kpoints>
  <scstep>
   <time name="total">    2.48    1.90</time>
   <energy>
    <i name="e_fr_energy">     -0.48316538 </i>
    <i name="e_wo_entrp">     -0.48316538 </i>
    <i name="e_0_energy">     -0.48316538 </i>
   </energy>
  </scstep>
  <scstep>
   <time name="total">    2.51    1.95</time>
   <energy>
    <i name="e_fr_energy">     -0.48537114 </i>
    <i name="e_wo_entrp">     -0.48537114 </i>
    <i name="e_0_energy">     -0.48537114 </i>
   </energy>
  </scstep>
  <scstep>
   <time name="total">    2.50    1.94</time>
   <energy>
    <i name="e_fr_energy">     -0.46519332 </i>
    <i name="e_wo_entrp">     -0.46519332 </i>
    <i name="e_0_energy">     -0.46519332 </i>
   </energy>
  </scstep>
  <scstep>
   <time name="total">    2.52    1.96</time>
   <energy>
    <i name="e_fr_energy">     -0.47603882 </i>
    <i name="e_wo_entrp">     -0.47603882 </i>
    <i name="e_0_energy">     -0.47603882 </i>
   </energy>
  </scstep>
  <scstep>
   <time name="total">    2.50    1.94</time>
   <energy>
    <i name="e_fr_energy">     -0.49377195 </i>
    <i name="e_wo_entrp">     -0.49377195 </i>
    <i name="e_0_energy">     -0.49377195 </i>
   </energy>
  </scstep>
  <scstep>
   <time name="total">    2.48    1.92</time>
   <energy>
    <i name="e_fr_energy">     -0.49669133 </i>
    <i name="e_wo_entrp">     -0.49669133 </i>
    <i name="e_0_energy">     -0.49669133 </i>
   </energy>
  </scstep>
  <scstep>
   <time name="total">    2.51    1.95</time>
   <energy>
    <i name="e_fr_energy">     -0.49693426 </i>
    <i name="e_wo_entrp">     -0.49693426 </i>
    <i name="e_0_energy">     -0.49693426 </i>
   </energy>
  </scstep>
  <scstep>
   <time name="total">    2.52    1.95</time>
   <energy>
    <i name="e_fr_energy">     -0.49716452 </i>
    <i name="e_wo_entrp">     -0.49716452 </i>
    <i name="e_0_energy">     -0.49716452 </i>
   </energy>
  </scstep>
  <scstep>
   <time name="total">    2.52    1.96</time>
   <energy>
    <i name="e_fr_energy">     -0.49723017 </i>
    <i name="e_wo_entrp">     -0.49723017 </i>
    <i name="e_0_energy">     -0.49723017 </i>
   </energy>
  </scstep>
  <scstep>
   <time name="total">    2.51    1.95</time>
   <energy>
    <i name="e_fr_energy">     -0.49722517 </i>
    <i name="e_wo_entrp">     -0.49722517 </i>
    <i name="e_0_energy">     -0.49722517 </i>
   </energy>
  </scstep>
  <scstep>
   <time name="total">    2.52    1.96</time>
   <energy>
    <i name="e_fr_energy">     -0.49722625 </i>
    <i name="e_wo_entrp">     -0.49722625 </i>
    <i name="e_0_energy">     -0.49722625 </i>
   </energy>
  </scstep>
  <scstep>
   <time name="total">    2.43    1.86</time>
   <energy>
    <i name="e_fr_energy">     -0.49722631 </i>
    <i name="e_wo_entrp">     -0.49722631 </i>
    <i name="e_0_energy">     -0.49722631 </i>
   </energy>
  </scstep>
  <scstep>
   <time name="total">    2.43    1.87</time>
   <energy>
    <i name="e_fr_energy">     -0.49722633 </i>
    <i name="e_wo_entrp">     -0.49722633 </i>
    <i name="e_0_energy">     -0.49722633 </i>
   </energy>
  </scstep>
  <scstep>
   <time name="total">    2.45    1.89</time>
   <energy>
    <i name="e_fr_energy">     -0.49722625 </i>
    <i name="e_wo_entrp">     -0.49722625 </i>
    <i name="e_0_energy">     -0.49722625 </i>
   </energy>
  </scstep>
  <kpoints>
   <generation param="Gamma">
    <v type="int" name="divisions">       4        4        4 </v>
    <v name="usershift">      0.00000000       0.00000000       0.00000000 </v>
    <v name="genvec1">      0.25000000       0.00000000       0.00000000 </v>
    <v name="genvec2">      0.00000000       0.25000000       0.00000000 </v>
    <v name="genvec3">      0.00000000       0.00000000       0.25000000 </v>
    <v name="shift">      0.00000000       0.00000000       0.00000000 </v>
   </generation>
   <varray name="kpointlist" >
    <v>       0.00000000       0.00000000       0.00000000 </v>
    <v>       0.25000000       0.00000000       0.00000000 </v>
    <v>       0.50000000       0.00000000       0.00000000 </v>
    <v>       0.25000000       0.25000000       0.00000000 </v>
    <v>       0.00000000       0.00000000       0.25000000 </v>
    <v>       0.25000000       0.00000000       0.25000000 </v>
    <v>       0.00000000       0.25000000       0.25000000 </v>
    <v>       0.50000000       0.00000000       0.25000000 </v>
    <v>       0.25000000       0.25000000       0.25000000 </v>
    <v>      -0.25000000       0.50000000       0.25000000 </v>
    <v>       0.00000000       0.00000000       0.50000000 </v>
    <v>       0.25000000       0.00000000       0.50000000 </v>
    <v>       0.50000000       0.00000000       0.50000000 </v>
    <v>       0.25000000       0.25000000       0.50000000 </v>
   </varray>
   <varray name="weights" >
    <v>       0.01562500 </v>
    <v>       0.09375000 </v>
    <v>       0.04687500 </v>
    <v>       0.09375000 </v>
    <v>       0.03125000 </v>
    <v>       0.09375000 </v>
    <v>       0.09375000 </v>
    <v>       0.09375000 </v>
    <v>       0.09375000 </v>
    <v>       0.09375000 </v>
    <v>       0.01562500 </v>
    <v>       0.09375000 </v>
    <v>       0.04687500 </v>
    <v>       0.09375000 </v>
   </varray>
  </kpoints>
  <scstep>
   <time name="total">    1.35    0.81</time>
   <energy>
    <i name="e_fr_energy">     -0.48761157 </i>
    <i name="e_wo_entrp">     -0.48761157 </i>
    <i name="e_0_energy">     -0.48761157 </i>
   </energy>
  </scstep>
  <scstep>
   <time name="total">    1.40    0.83</time>
   <energy>
    <i name="e_fr_energy">     -0.48965566 </i>
    <i name="e_wo_entrp">     -0.48965566 </i>
    <i name="e_0_energy">     -0.48965566 </i>
   </energy>
  </scstep>
  <scstep>
   <time name="total">    1.40    0.84</time>
   <energy>
    <i name="e_fr_energy">     -0.47441996 </i>
    <i name="e_wo_entrp">     -0.47441996 </i>
    <i name="e_0_energy">     -0.47441996 </i>
   </energy>
  </scstep>
  <scstep>
   <time name="total">    1.41    0.85</time>
   <energy>
    <i name="e_fr_energy">     -0.48762947 </i>
    <i name="e_wo_entrp">     -0.48762947 </i>
    <i name="e_0_energy">     -0.48762947 </i>
   </energy>
  </scstep>
  <scstep>
   <time name="total">    1.40    0.84</time>
   <energy>
    <i name="e_fr_energy">     -0.50387304 </i>
    <i name="e_wo_entrp">     -0.50387304 </i>
    <i name="e_0_energy">     -0.50387304 </i>
   </energy>
  </scstep>
  <scstep>
   <time name="total">    1.39    0.82</time>
   <energy>
    <i name="e_fr_energy">     -0.50671246 </i>
    <i name="e_wo_entrp">     -0.50671246 </i>
    <i name="e_0_energy">     -0.50671246 </i>
   </energy>
  </scstep>
  <scstep>
   <time name="total">    1.42    0.85</time>
   <energy>
    <i name="e_fr_energy">     -0.50695577 </i>
    <i name="e_wo_entrp">     -0.50695577 </i>
    <i name="e_0_energy">     -0.50695577 </i>
   </energy>
  </scstep>
  <scstep>
   <time name="total">    1.41    0.84</time>
   <energy>
    <i name="e_fr_energy">     -0.50722159 </i>
    <i name="e_wo_entrp">     -0.50722159 </i>
    <i name="e_0_energy">     -0.50722159 </i>
   </energy>
  </scstep>
  <scstep>
   <time name="total">    1.41    0.84</time>
   <energy>
    <i name="e_fr_energy">     -0.50724434 </i>
    <i name="e_wo_entrp">     -0.50724434 </i>
    <i name="e_0_energy">     -0.50724434 </i>
   </energy>
  </scstep>
  <scstep>
   <time name="total">    1.41    0.85</time>
   <energy>
    <i name="e_fr_energy">     -0.50724550 </i>
    <i name="e_wo_entrp">     -0.50724550 </i>
    <i name="e_0_energy">     -0.50724550 </i>
   </energy>
  </scstep>
  <scstep>
   <time name="total">    1.42    0.85</time>
   <energy>
    <i name="e_fr_energy">     -0.50724466 </i>
    <i name="e_wo_entrp">     -0.50724466 </i>
    <i name="e_0_energy">     -0.50724466 </i>
   </energy>
  </scstep>
  <scstep>
   <time name="total">    1.37    0.80</time>
   <energy>
    <i name="e_fr_energy">     -0.50724491 </i>
    <i name="e_wo_entrp">     -0.50724491 </i>
    <i name="e_0_energy">     -0.50724491 </i>
   </energy>
  </scstep>
  <scstep>
   <time name="total">    1.39    0.82</time>
   <energy>
    <i name="e_fr_energy">     -0.50724489 </i>
    <i name="e_wo_entrp">     -0.50724489 </i>
    <i name="e_0_energy">     -0.50724489 </i>
   </energy>
  </scstep>
  <scstep>
   <time name="total">    1.35    0.78</time>
   <energy>
    <i name="e_fr_energy">     -0.50724486 </i>
    <i name="e_wo_entrp">     -0.50724486 </i>
    <i name="e_0_energy">     -0.50724486 </i>
   </energy>
  </scstep>
  <kpoints>
   <generation param="Gamma">
    <v type="int" name="divisions">       4        4        4 </v>
    <v name="usershift">      0.00000000       0.00000000       0.00000000 </v>
    <v name="genvec1">      0.25000000       0.00000000       0.00000000 </v>
    <v name="genvec2">      0.00000000       0.25000000       0.00000000 </v>
    <v name="genvec3">      0.00000000       0.00000000       0.25000000 </v>
    <v name="shift">      0.00000000       0.00000000       0.00000000 </v>
   </generation>
   <varray name="kpointlist" >
    <v>       0.00000000       0.00000000       0.00000000 </v>
    <v>       0.25000000       0.00000000       0.00000000 </v>
    <v>       0.50000000       0.00000000       0.00000000 </v>
    <v>       0.25000000       0.25000000       0.00000000 </v>
    <v>       0.00000000       0.00000000       0.25000000 </v>
    <v>       0.25000000       0.00000000       0.25000000 </v>
    <v>       0.00000000       0.25000000       0.25000000 </v>
    <v>       0.50000000       0.00000000       0.25000000 </v>
    <v>       0.25000000       0.25000000       0.25000000 </v>
    <v>      -0.25000000       0.50000000       0.25000000 </v>
    <v>       0.00000000       0.00000000       0.50000000 </v>
    <v>       0.25000000       0.00000000       0.50000000 </v>
    <v>       0.50000000       0.00000000       0.50000000 </v>
    <v>       0.25000000       0.25000000       0.50000000 </v>
   </varray>
   <varray name="weights" >
    <v>       0.01562500 </v>
    <v>       0.09375000 </v>
    <v>       0.04687500 </v>
    <v>       0.09375000 </v>
    <v>       0.03125000 </v>
    <v>       0.09375000 </v>
    <v>       0.09375000 </v>
    <v>       0.09375000 </v>
    <v>       0.09375000 </v>
    <v>       0.09375000 </v>
    <v>       0.01562500 </v>
    <v>       0.09375000 </v>
    <v>       0.04687500 </v>
    <v>       0.09375000 </v>
   </varray>
  </kpoints>
  <varray name="dielectric_dft" >
   <v>       2.48082294      -0.00000081       0.00000000 </v>
   <v>       0.00000081       2.48082294       0.00000000 </v>
   <v>       0.00000000       0.00000000       2.51334194 </v>
  </varray>
  <varray name="epsilon" >
   <v>       2.48082294      -0.00000081       0.00000000 </v>
   <v>       0.00000081       2.48082294       0.00000000 </v>
   <v>       0.00000000       0.00000000       2.51334194 </v>
  </varray>
  <kpoints>
   <generation param="Gamma">
    <v type="int" name="divisions">       4        4        4 </v>
    <v name="usershift">      0.00000000       0.00000000       0.00000000 </v>
    <v name="genvec1">      0.25000000       0.00000000       0.00000000 </v>
    <v name="genvec2">      0.00000000       0.25000000       0.00000000 </v>
    <v name="genvec3">      0.00000000       0.00000000       0.25000000 </v>
    <v name="shift">      0.00000000       0.00000000       0.00000000 </v>
   </generation>
   <varray name="kpointlist" >
    <v>       0.00000000       0.00000000       0.00000000 </v>
    <v>       0.25000000       0.00000000       0.00000000 </v>
    <v>       0.50000000       0.00000000       0.00000000 </v>
    <v>       0.25000000       0.25000000       0.00000000 </v>
    <v>       0.00000000       0.00000000       0.25000000 </v>
    <v>       0.25000000       0.00000000       0.25000000 </v>
    <v>       0.00000000       0.25000000       0.25000000 </v>
    <v>       0.50000000       0.00000000       0.25000000 </v>
    <v>       0.25000000       0.25000000       0.25000000 </v>
    <v>      -0.25000000       0.50000000       0.25000000 </v>
    <v>       0.00000000       0.00000000       0.50000000 </v>
    <v>       0.25000000       0.00000000       0.50000000 </v>
    <v>       0.50000000       0.00000000       0.50000000 </v>
    <v>       0.25000000       0.25000000       0.50000000 </v>
   </varray>
   <varray name="weights" >
    <v>       0.01562500 </v>
    <v>       0.09375000 </v>
    <v>       0.04687500 </v>
    <v>       0.09375000 </v>
    <v>       0.03125000 </v>
    <v>       0.09375000 </v>
    <v>       0.09375000 </v>
    <v>       0.09375000 </v>
    <v>       0.09375000 </v>
    <v>       0.09375000 </v>
    <v>       0.01562500 </v>
    <v>       0.09375000 </v>
    <v>       0.04687500 </v>
    <v>       0.09375000 </v>
   </varray>
  </kpoints>
  <array name="born_charges" >
   <dimension dim="1">ion</dimension>
   <set>
    <v>       2.98053514       0.00007291       0.00058085 </v>
    <v>       0.00051150       3.62048686      -0.32134100 </v>
    <v>      -0.00021051       0.27803124       3.42535417 </v>
   </set>
   <set>
    <v>       3.46075199       0.27674183       0.27799905 </v>
    <v>       0.27718042       3.14027002       0.16117353 </v>
    <v>      -0.24067686      -0.13919793       3.42535417 </v>
   </set>
   <set>
    <v>       3.46024588      -0.27747262      -0.27857990 </v>
    <v>      -0.27703403       3.14077613       0.16016747 </v>
    <v>       0.24088737      -0.13883331       3.42535417 </v>
   </set>
   <set>
    <v>      -1.31169146      -0.49392421      -0.31033207 </v>
    <v>      -0.43688591      -1.99054499      -0.67930887 </v>
    <v>      -0.24383200      -0.72218437      -1.71302162 </v>
   </set>
   <set>
    <v>      -2.22388421      -0.08976882       0.74346477 </v>
    <v>      -0.03273052      -1.07835224       0.07089898 </v>
    <v>       0.74734601       0.14992747      -1.71302162 </v>
   </set>
   <set>
    <v>      -1.41777900       0.49813558      -0.43313271 </v>
    <v>       0.55517388      -1.88445745       0.60840989 </v>
    <v>      -0.50351400       0.57225689      -1.71302162 </v>
   </set>
   <set>
    <v>      -1.31059344       0.49277557       0.31009988 </v>
    <v>       0.43529867      -1.98819211      -0.67872574 </v>
    <v>       0.24305157      -0.72073192      -1.71233255 </v>
   </set>
   <set>
    <v>      -2.22066037       0.09012872      -0.74284368 </v>
    <v>       0.03265182      -1.07812518       0.07080850 </v>
    <v>      -0.74569793       0.14987712      -1.71233255 </v>
   </set>
   <set>
    <v>      -1.41692451      -0.49668894       0.43274380 </v>
    <v>      -0.55416584      -1.88186104       0.60791725 </v>
    <v>       0.50264636       0.57085479      -1.71233255 </v>
   </set>
  </array>
  <time name="totalsc">  254.02  143.75</time>
  <eigenvalues>
   <array>
    <dimension dim="1">band</dimension>
    <dimension dim="2">kpoint</dimension>
    <dimension dim="3">spin</dimension>
    <field>eigene</field>
    <field>occ</field>
    <set>
     <set comment="spin 1">
      <set comment="kpoint 1">
       <r>  -18.1719    1.0000 </r>
       <r>  -16.6201    1.0000 </r>
       <r>  -16.6201    1.0000 </r>
       <r>  -15.9516    1.0000 </r>
       <r>  -15.9423    1.0000 </r>
       <r>  -15.9423    1.0000 </r>
       <r>   -6.8789    1.0000 </r>
       <r>   -6.8789    1.0000 </r>
       <r>   -4.1465    1.0000 </r>
       <r>   -4.0639    1.0000 </r>
       <r>   -3.9112    1.0000 </r>
       <r>   -3.9112    1.0000 </r>
       <r>   -1.6856    1.0000 </r>
       <r>   -1.6856    1.0000 </r>
       <r>   -1.3748    1.0000 </r>
       <r>   -1.1506    1.0000 </r>
       <r>   -0.1554    1.0000 </r>
       <r>   -0.1554    1.0000 </r>
       <r>   -0.0980    1.0000 </r>
       <r>    0.2613    1.0000 </r>
       <r>    0.2613    1.0000 </r>
       <r>    0.4586    1.0000 </r>
       <r>    1.0042    1.0000 </r>
       <r>    1.0042    1.0000 </r>
       <r>    7.3235    0.0000 </r>
       <r>   10.6085    0.0000 </r>
       <r>   10.6085    0.0000 </r>
       <r>   11.2366    0.0000 </r>
       <r>   11.2366    0.0000 </r>
      </set>
      <set comment="kpoint 2">
       <r>  -17.9880    1.0000 </r>
       <r>  -16.8197    1.0000 </r>
       <r>  -16.5937    1.0000 </r>
       <r>  -16.0189    1.0000 </r>
       <r>  -15.9757    1.0000 </r>
       <r>  -15.9422    1.0000 </r>
       <r>   -6.9569    1.0000 </r>
       <r>   -6.5092    1.0000 </r>
       <r>   -4.2176    1.0000 </r>
       <r>   -4.1542    1.0000 </r>
       <r>   -4.0326    1.0000 </r>
       <r>   -3.6189    1.0000 </r>
       <r>   -1.8729    1.0000 </r>
       <r>   -1.5567    1.0000 </r>
       <r>   -1.3477    1.0000 </r>
       <r>   -0.8969    1.0000 </r>
       <r>   -0.6972    1.0000 </r>
       <r>   -0.2392    1.0000 </r>
       <r>   -0.1600    1.0000 </r>
       <r>    0.1793    1.0000 </r>
       <r>    0.2769    1.0000 </r>
       <r>    0.4210    1.0000 </r>
       <r>    1.0535    1.0000 </r>
       <r>    1.1416    1.0000 </r>
       <r>    8.2330    0.0000 </r>
       <r>   10.6696    0.0000 </r>
       <r>   10.7200    0.0000 </r>
       <r>   11.2073    0.0000 </r>
       <r>   11.4827    0.0000 </r>
      </set>
      <set comment="kpoint 3">
       <r>  -17.6650    1.0000 </r>
       <r>  -17.1820    1.0000 </r>
       <r>  -16.5648    1.0000 </r>
       <r>  -16.0451    1.0000 </r>
       <r>  -16.0008    1.0000 </r>
       <r>  -15.9680    1.0000 </r>
       <r>   -7.0306    1.0000 </r>
       <r>   -6.0439    1.0000 </r>
       <r>   -4.5561    1.0000 </r>
       <r>   -4.0960    1.0000 </r>
       <r>   -4.0893    1.0000 </r>
       <r>   -3.2818    1.0000 </r>
       <r>   -1.8239    1.0000 </r>
       <r>   -1.6227    1.0000 </r>
       <r>   -1.4348    1.0000 </r>
       <r>   -1.0012    1.0000 </r>
       <r>   -0.7924    1.0000 </r>
       <r>   -0.4795    1.0000 </r>
       <r>   -0.2878    1.0000 </r>
       <r>    0.1954    1.0000 </r>
       <r>    0.2819    1.0000 </r>
       <r>    0.5595    1.0000 </r>
       <r>    1.0150    1.0000 </r>
       <r>    1.2412    1.0000 </r>
       <r>    9.6351    0.0000 </r>
       <r>   10.3716    0.0000 </r>
       <r>   10.9654    0.0000 </r>
       <r>   10.9896    0.0000 </r>
       <r>   11.9984    0.0000 </r>
      </set>
      <set comment="kpoint 4">
       <r>  -17.6754    1.0000 </r>
       <r>  -17.1516    1.0000 </r>
       <r>  -16.5957    1.0000 </r>
       <r>  -16.0405    1.0000 </r>
       <r>  -15.9985    1.0000 </r>
       <r>  -15.9647    1.0000 </r>
       <r>   -7.0589    1.0000 </r>
       <r>   -5.9058    1.0000 </r>
       <r>   -4.8494    1.0000 </r>
       <r>   -4.0740    1.0000 </r>
       <r>   -3.9327    1.0000 </r>
       <r>   -3.2896    1.0000 </r>
       <r>   -1.7833    1.0000 </r>
       <r>   -1.6281    1.0000 </r>
       <r>   -1.4651    1.0000 </r>
       <r>   -0.8973    1.0000 </r>
       <r>   -0.8478    1.0000 </r>
       <r>   -0.4277    1.0000 </r>
       <r>   -0.2437    1.0000 </r>
       <r>   -0.0086    1.0000 </r>
       <r>    0.2524    1.0000 </r>
       <r>    0.6679    1.0000 </r>
       <r>    0.9803    1.0000 </r>
       <r>    1.2630    1.0000 </r>
       <r>    9.4762    0.0000 </r>
       <r>   10.7356    0.0000 </r>
       <r>   10.7720    0.0000 </r>
       <r>   11.4411    0.0000 </r>
       <r>   11.5795    0.0000 </r>
      </set>
      <set comment="kpoint 5">
       <r>  -18.0467    1.0000 </r>
       <r>  -17.1800    1.0000 </r>
       <r>  -16.1696    1.0000 </r>
       <r>  -15.9556    1.0000 </r>
       <r>  -15.9536    1.0000 </r>
       <r>  -15.9227    1.0000 </r>
       <r>   -7.6522    1.0000 </r>
       <r>   -5.8674    1.0000 </r>
       <r>   -4.3682    1.0000 </r>
       <r>   -4.1815    1.0000 </r>
       <r>   -4.1301    1.0000 </r>
       <r>   -3.5528    1.0000 </r>
       <r>   -1.7666    1.0000 </r>
       <r>   -1.4402    1.0000 </r>
       <r>   -1.3093    1.0000 </r>
       <r>   -0.9473    1.0000 </r>
       <r>   -0.4233    1.0000 </r>
       <r>   -0.2928    1.0000 </r>
       <r>   -0.1653    1.0000 </r>
       <r>   -0.1613    1.0000 </r>
       <r>    0.1777    1.0000 </r>
       <r>    0.6299    1.0000 </r>
       <r>    1.0941    1.0000 </r>
       <r>    1.1786    1.0000 </r>
       <r>    7.9359    0.0000 </r>
       <r>   10.4178    0.0000 </r>
       <r>   10.6311    0.0000 </r>
       <r>   10.6442    0.0000 </r>
       <r>   11.6494    0.0000 </r>
      </set>
      <set comment="kpoint 6">
       <r>  -17.8795    1.0000 </r>
       <r>  -17.1561    1.0000 </r>
       <r>  -16.3550    1.0000 </r>
       <r>  -16.0143    1.0000 </r>
       <r>  -15.9924    1.0000 </r>
       <r>  -15.9404    1.0000 </r>
       <r>   -7.3280    1.0000 </r>
       <r>   -5.9249    1.0000 </r>
       <r>   -4.6326    1.0000 </r>
       <r>   -4.0961    1.0000 </r>
       <r>   -3.8304    1.0000 </r>
       <r>   -3.6546    1.0000 </r>
       <r>   -1.9391    1.0000 </r>
       <r>   -1.4329    1.0000 </r>
       <r>   -1.3054    1.0000 </r>
       <r>   -0.9654    1.0000 </r>
       <r>   -0.6437    1.0000 </r>
       <r>   -0.3021    1.0000 </r>
       <r>   -0.1670    1.0000 </r>
       <r>    0.0580    1.0000 </r>
       <r>    0.3182    1.0000 </r>
       <r>    0.4880    1.0000 </r>
       <r>    1.0121    1.0000 </r>
       <r>    1.1509    1.0000 </r>
       <r>    8.7073    0.0000 </r>
       <r>   10.4520    0.0000 </r>
       <r>   10.7348    0.0000 </r>
       <r>   10.9638    0.0000 </r>
       <r>   11.6991    0.0000 </r>
      </set>
      <set comment="kpoint 7">
       <r>  -17.8823    1.0000 </r>
       <r>  -17.1426    1.0000 </r>
       <r>  -16.3863    1.0000 </r>
       <r>  -16.0151    1.0000 </r>
       <r>  -15.9595    1.0000 </r>
       <r>  -15.9514    1.0000 </r>
       <r>   -7.3302    1.0000 </r>
       <r>   -5.9299    1.0000 </r>
       <r>   -4.6333    1.0000 </r>
       <r>   -4.1189    1.0000 </r>
       <r>   -3.8572    1.0000 </r>
       <r>   -3.5702    1.0000 </r>
       <r>   -1.8926    1.0000 </r>
       <r>   -1.3903    1.0000 </r>
       <r>   -1.3601    1.0000 </r>
       <r>   -1.1093    1.0000 </r>
       <r>   -0.6941    1.0000 </r>
       <r>   -0.2004    1.0000 </r>
       <r>   -0.1045    1.0000 </r>
       <r>    0.0409    1.0000 </r>
       <r>    0.3868    1.0000 </r>
       <r>    0.4107    1.0000 </r>
       <r>    0.9059    1.0000 </r>
       <r>    1.2524    1.0000 </r>
       <r>    8.6702    0.0000 </r>
       <r>   10.5744    0.0000 </r>
       <r>   10.8872    0.0000 </r>
       <r>   11.0276    0.0000 </r>
       <r>   11.5534    0.0000 </r>
      </set>
      <set comment="kpoint 8">
       <r>  -17.6282    1.0000 </r>
       <r>  -17.1623    1.0000 </r>
       <r>  -16.6338    1.0000 </r>
       <r>  -16.0519    1.0000 </r>
       <r>  -16.0073    1.0000 </r>
       <r>  -15.9588    1.0000 </r>
       <r>   -6.9564    1.0000 </r>
       <r>   -5.9804    1.0000 </r>
       <r>   -4.8533    1.0000 </r>
       <r>   -4.0802    1.0000 </r>
       <r>   -3.7934    1.0000 </r>
       <r>   -3.4626    1.0000 </r>
       <r>   -1.8854    1.0000 </r>
       <r>   -1.7936    1.0000 </r>
       <r>   -1.2421    1.0000 </r>
       <r>   -1.0499    1.0000 </r>
       <r>   -0.5803    1.0000 </r>
       <r>   -0.4813    1.0000 </r>
       <r>   -0.1350    1.0000 </r>
[...]
       <r>    1.2156    1.0000 </r>
       <r>    9.3085    0.0000 </r>
       <r>    9.3085    0.0000 </r>
       <r>   10.4336    0.0000 </r>
       <r>   10.9941    0.0000 </r>
       <r>   10.9941    0.0000 </r>
      </set>
      <set comment="kpoint 12">
       <r>  -17.6424    1.0000 </r>
       <r>  -17.5018    1.0000 </r>
       <r>  -16.2496    1.0000 </r>
       <r>  -16.0272    1.0000 </r>
       <r>  -15.9734    1.0000 </r>
       <r>  -15.9426    1.0000 </r>
       <r>   -7.5168    1.0000 </r>
       <r>   -5.3543    1.0000 </r>
       <r>   -5.0127    1.0000 </r>
       <r>   -4.0964    1.0000 </r>
       <r>   -3.9726    1.0000 </r>
       <r>   -3.4571    1.0000 </r>
       <r>   -1.7490    1.0000 </r>
       <r>   -1.7305    1.0000 </r>
       <r>   -1.2092    1.0000 </r>
       <r>   -0.9365    1.0000 </r>
       <r>   -0.7530    1.0000 </r>
       <r>   -0.2542    1.0000 </r>
       <r>   -0.1573    1.0000 </r>
       <r>    0.0431    1.0000 </r>
       <r>    0.1864    1.0000 </r>
       <r>    0.7963    1.0000 </r>
       <r>    0.8304    1.0000 </r>
       <r>    1.1410    1.0000 </r>
       <r>    9.6763    0.0000 </r>
       <r>    9.8377    0.0000 </r>
       <r>   10.7237    0.0000 </r>
       <r>   11.0287    0.0000 </r>
       <r>   11.3861    0.0000 </r>
      </set>
      <set comment="kpoint 13">
       <r>  -17.5872    1.0000 </r>
       <r>  -17.1414    1.0000 </r>
       <r>  -16.7049    1.0000 </r>
       <r>  -16.0736    1.0000 </r>
       <r>  -15.9932    1.0000 </r>
       <r>  -15.9589    1.0000 </r>
       <r>   -6.8760    1.0000 </r>
       <r>   -5.9141    1.0000 </r>
       <r>   -5.0478    1.0000 </r>
       <r>   -3.9970    1.0000 </r>
       <r>   -3.7051    1.0000 </r>
       <r>   -3.6150    1.0000 </r>
       <r>   -1.9309    1.0000 </r>
       <r>   -1.9232    1.0000 </r>
       <r>   -1.1444    1.0000 </r>
       <r>   -0.8283    1.0000 </r>
       <r>   -0.7467    1.0000 </r>
       <r>   -0.2749    1.0000 </r>
       <r>    0.0229    1.0000 </r>
       <r>    0.1890    1.0000 </r>
       <r>    0.3979    1.0000 </r>
       <r>    0.4040    1.0000 </r>
       <r>    0.6988    1.0000 </r>
       <r>    1.1195    1.0000 </r>
       <r>   10.2273    0.0000 </r>
       <r>   10.7251    0.0000 </r>
       <r>   11.0144    0.0000 </r>
       <r>   11.2003    0.0000 </r>
       <r>   11.5388    0.0000 </r>
      </set>
      <set comment="kpoint 14">
       <r>  -17.5752    1.0000 </r>
       <r>  -17.1860    1.0000 </r>
       <r>  -16.6523    1.0000 </r>
       <r>  -16.0617    1.0000 </r>
       <r>  -15.9945    1.0000 </r>
       <r>  -15.9910    1.0000 </r>
       <r>   -6.8566    1.0000 </r>
       <r>   -5.8701    1.0000 </r>
       <r>   -5.1562    1.0000 </r>
       <r>   -3.8978    1.0000 </r>
       <r>   -3.7950    1.0000 </r>
       <r>   -3.6155    1.0000 </r>
       <r>   -1.9739    1.0000 </r>
       <r>   -1.7469    1.0000 </r>
       <r>   -1.2647    1.0000 </r>
       <r>   -0.9003    1.0000 </r>
       <r>   -0.6224    1.0000 </r>
       <r>   -0.4222    1.0000 </r>
       <r>    0.1493    1.0000 </r>
       <r>    0.2557    1.0000 </r>
       <r>    0.3284    1.0000 </r>
       <r>    0.5712    1.0000 </r>
       <r>    0.7165    1.0000 </r>
       <r>    0.9241    1.0000 </r>
       <r>   10.1771    0.0000 </r>
       <r>   10.6509    0.0000 </r>
       <r>   10.9632    0.0000 </r>
       <r>   11.3049    0.0000 </r>
       <r>   11.7227    0.0000 </r>
      </set>
     </set>
    </set>
   </array>
  </eigenvalues>
  <separator name="orbital magnetization" >
   <v name="MAGDIPOLOUT">      0.00000000      0.00000000      0.00000000</v>
  </separator>
  <dos>
   <i name="efermi">      1.78417028 </i>
   <total>
    <array>
     <dimension dim="1">gridpoints</dimension>
     <dimension dim="2">spin</dimension>
     <field>energy</field>
     <field>total</field>
     <field>integrated</field>
     <set>
      <set comment="spin 1">
       <r>   -19.6805     0.0000     0.0000 </r>
       <r>   -19.5698     0.0000     0.0000 </r>
       <r>   -19.4592     0.0000     0.0000 </r>
       <r>   -19.3486     0.0000     0.0000 </r>
       <r>   -19.2380     0.0000     0.0000 </r>
       <r>   -19.1273     0.0000     0.0000 </r>
       <r>   -19.0167     0.0000     0.0000 </r>
       <r>   -18.9061     0.0000     0.0000 </r>
       <r>   -18.7955     0.0000     0.0000 </r>
       <r>   -18.6848     0.0000     0.0000 </r>
       <r>   -18.5742     0.0000     0.0000 </r>
       <r>   -18.4636     0.0000     0.0000 </r>
       <r>   -18.3530     0.0015     0.0002 </r>
       <r>   -18.2423     0.0455     0.0052 </r>
       <r>   -18.1317     0.2561     0.0335 </r>
       <r>   -18.0211     0.9592     0.1396 </r>
       <r>   -17.9105     2.1805     0.3809 </r>
       <r>   -17.7998     2.2491     0.6297 </r>
       <r>   -17.6892     3.1557     0.9788 </r>
       <r>   -17.5786     6.7081     1.7208 </r>
       <r>   -17.4680     3.7426     2.1349 </r>
       <r>   -17.3573     0.7678     2.2198 </r>
       <r>   -17.2467     1.6667     2.4042 </r>
       <r>   -17.1361     7.3330     3.2154 </r>
       <r>   -17.0255     4.7028     3.7356 </r>
       <r>   -16.9148     0.5610     3.7977 </r>
       <r>   -16.8042     0.9817     3.9063 </r>
       <r>   -16.6936     2.7454     4.2100 </r>
       <r>   -16.5830     6.4595     4.9246 </r>
       <r>   -16.4723     3.7486     5.3393 </r>
       <r>   -16.3617     1.9946     5.5599 </r>
       <r>   -16.2511     2.2040     5.8037 </r>
       <r>   -16.1405     3.0145     6.1372 </r>
       <r>   -16.0298    16.0965     7.9179 </r>
       <r>   -15.9192    27.1246    10.9185 </r>
       <r>   -15.8086     9.2391    11.9406 </r>
       <r>   -15.6980     0.5328    11.9995 </r>
       <r>   -15.5873     0.0042    12.0000 </r>
       <r>   -15.4767     0.0000    12.0000 </r>
       <r>   -15.3661     0.0000    12.0000 </r>
       <r>   -15.2555     0.0000    12.0000 </r>
       <r>   -15.1449     0.0000    12.0000 </r>
       <r>   -15.0342     0.0000    12.0000 </r>
       <r>   -14.9236     0.0000    12.0000 </r>
       <r>   -14.8130     0.0000    12.0000 </r>
       <r>   -14.7024     0.0000    12.0000 </r>
       <r>   -14.5917     0.0000    12.0000 </r>
       <r>   -14.4811     0.0000    12.0000 </r>
       <r>   -14.3705     0.0000    12.0000 </r>
       <r>   -14.2599     0.0000    12.0000 </r>
       <r>   -14.1492     0.0000    12.0000 </r>
       <r>   -14.0386     0.0000    12.0000 </r>
       <r>   -13.9280     0.0000    12.0000 </r>
       <r>   -13.8174     0.0000    12.0000 </r>
       <r>   -13.7067     0.0000    12.0000 </r>
       <r>   -13.5961     0.0000    12.0000 </r>
       <r>   -13.4855     0.0000    12.0000 </r>
       <r>   -13.3749     0.0000    12.0000 </r>
       <r>   -13.2642     0.0000    12.0000 </r>
       <r>   -13.1536     0.0000    12.0000 </r>
       <r>   -13.0430     0.0000    12.0000 </r>
       <r>   -12.9324     0.0000    12.0000 </r>
       <r>   -12.8217     0.0000    12.0000 </r>
       <r>   -12.7111     0.0000    12.0000 </r>
       <r>   -12.6005     0.0000    12.0000 </r>
       <r>   -12.4899     0.0000    12.0000 </r>
       <r>   -12.3792     0.0000    12.0000 </r>
       <r>   -12.2686     0.0000    12.0000 </r>
       <r>   -12.1580     0.0000    12.0000 </r>
       <r>   -12.0474     0.0000    12.0000 </r>
       <r>   -11.9367     0.0000    12.0000 </r>
       <r>   -11.8261     0.0000    12.0000 </r>
       <r>   -11.7155     0.0000    12.0000 </r>
       <r>   -11.6049     0.0000    12.0000 </r>
       <r>   -11.4942     0.0000    12.0000 </r>
       <r>   -11.3836     0.0000    12.0000 </r>
       <r>   -11.2730     0.0000    12.0000 </r>
       <r>   -11.1624     0.0000    12.0000 </r>
       <r>   -11.0517     0.0000    12.0000 </r>
       <r>   -10.9411     0.0000    12.0000 </r>
       <r>   -10.8305     0.0000    12.0000 </r>
       <r>   -10.7199     0.0000    12.0000 </r>
       <r>   -10.6092     0.0000    12.0000 </r>
       <r>   -10.4986     0.0000    12.0000 </r>
       <r>   -10.3880     0.0000    12.0000 </r>
       <r>   -10.2774     0.0000    12.0000 </r>
       <r>   -10.1667     0.0000    12.0000 </r>
       <r>   -10.0561     0.0000    12.0000 </r>
       <r>    -9.9455     0.0000    12.0000 </r>
       <r>    -9.8349     0.0000    12.0000 </r>
       <r>    -9.7242     0.0000    12.0000 </r>
       <r>    -9.6136     0.0000    12.0000 </r>
       <r>    -9.5030     0.0000    12.0000 </r>
       <r>    -9.3924     0.0000    12.0000 </r>
       <r>    -9.2817     0.0000    12.0000 </r>
       <r>    -9.1711     0.0000    12.0000 </r>
       <r>    -9.0605     0.0000    12.0000 </r>
       <r>    -8.9499     0.0000    12.0000 </r>
       <r>    -8.8392     0.0000    12.0000 </r>
       <r>    -8.7286     0.0000    12.0000 </r>
       <r>    -8.6180     0.0000    12.0000 </r>
       <r>    -8.5074     0.0000    12.0000 </r>
       <r>    -8.3968     0.0000    12.0000 </r>
       <r>    -8.2861     0.0000    12.0000 </r>
       <r>    -8.1755     0.0001    12.0000 </r>
       <r>    -8.0649     0.0117    12.0013 </r>
       <r>    -7.9543     0.1110    12.0136 </r>
       <r>    -7.8436     0.1388    12.0289 </r>
       <r>    -7.7330     0.0938    12.0393 </r>
       <r>    -7.6224     0.4167    12.0854 </r>
       <r>    -7.5118     0.9747    12.1932 </r>
       <r>    -7.4011     1.2316    12.3295 </r>
       <r>    -7.2905     1.9611    12.5464 </r>
       <r>    -7.1799     1.0287    12.6602 </r>
       <r>    -7.0693     1.3914    12.8142 </r>
       <r>    -6.9586     4.6219    13.3255 </r>
       <r>    -6.8480     4.7493    13.8509 </r>
       <r>    -6.7374     1.5145    14.0184 </r>
       <r>    -6.6268     0.1966    14.0401 </r>
       <r>    -6.5161     0.7008    14.1177 </r>
       <r>    -6.4055     0.7928    14.2054 </r>
       <r>    -6.2949     0.1189    14.2185 </r>
       <r>    -6.1843     0.0259    14.2214 </r>
       <r>    -6.0736     0.5260    14.2796 </r>
       <r>    -5.9630     3.4218    14.6581 </r>
       <r>    -5.8524     6.9588    15.4279 </r>
       <r>    -5.7418     2.9883    15.7585 </r>
       <r>    -5.6311     0.2037    15.7811 </r>
       <r>    -5.5205     0.0175    15.7830 </r>
       <r>    -5.4099     0.3501    15.8217 </r>
       <r>    -5.2993     0.9957    15.9319 </r>
       <r>    -5.1886     0.9256    16.0343 </r>
       <r>    -5.0780     2.1914    16.2767 </r>
       <r>    -4.9674     3.8975    16.7079 </r>
       <r>    -4.8568     2.9769    17.0372 </r>
       <r>    -4.7461     1.8784    17.2450 </r>
       <r>    -4.6355     1.7989    17.4440 </r>
       <r>    -4.5249     1.9981    17.6650 </r>
       <r>    -4.4143     0.6220    17.7338 </r>
       <r>    -4.3036     0.7468    17.8164 </r>
       <r>    -4.1930     3.0785    18.1570 </r>
       <r>    -4.0824     8.8550    19.1366 </r>
       <r>    -3.9718     9.6905    20.2086 </r>
       <r>    -3.8611     6.6573    20.9451 </r>
       <r>    -3.7505     6.7704    21.6940 </r>
       <r>    -3.6399     5.6640    22.3206 </r>
       <r>    -3.5293     5.6946    22.9506 </r>
       <r>    -3.4186     5.0943    23.5141 </r>
       <r>    -3.3080     2.6704    23.8095 </r>
       <r>    -3.1974     1.4560    23.9706 </r>
       <r>    -3.0868     0.2597    23.9993 </r>
       <r>    -2.9761     0.0060    24.0000 </r>
       <r>    -2.8655     0.0000    24.0000 </r>
       <r>    -2.7549     0.0000    24.0000 </r>
       <r>    -2.6443     0.0000    24.0000 </r>
       <r>    -2.5336     0.0000    24.0000 </r>
       <r>    -2.4230     0.0000    24.0000 </r>
       <r>    -2.3124     0.0000    24.0000 </r>
       <r>    -2.2018     0.0015    24.0002 </r>
       <r>    -2.0911     0.1609    24.0180 </r>
       <r>    -1.9805     2.6123    24.3069 </r>
       <r>    -1.8699     7.9451    25.1859 </r>
       <r>    -1.7593     8.1354    26.0858 </r>
       <r>    -1.6486     6.8246    26.8408 </r>
       <r>    -1.5380     5.3503    27.4327 </r>
       <r>    -1.4274     6.3534    28.1355 </r>
       <r>    -1.3168     8.5006    29.0759 </r>
       <r>    -1.2062     5.9554    29.7347 </r>
       <r>    -1.0955     3.8925    30.1653 </r>
       <r>    -0.9849     4.8374    30.7005 </r>
       <r>    -0.8743     8.3880    31.6284 </r>
       <r>    -0.7637     6.9456    32.3967 </r>
       <r>    -0.6530     7.3718    33.2122 </r>
       <r>    -0.5424     6.3327    33.9128 </r>
       <r>    -0.4318     6.2565    34.6049 </r>
       <r>    -0.3212     5.9543    35.2636 </r>
       <r>    -0.2105     8.0388    36.1529 </r>
       <r>    -0.0999     9.8444    37.2419 </r>
       <r>     0.0107     8.1717    38.1459 </r>
       <r>     0.1213     8.9372    39.1346 </r>
       <r>     0.2320     9.4891    40.1843 </r>
       <r>     0.3426    10.6952    41.3675 </r>
       <r>     0.4532     8.7589    42.3364 </r>
       <r>     0.5638     5.7946    42.9774 </r>
       <r>     0.6745     6.2856    43.6728 </r>
       <r>     0.7851     5.2737    44.2562 </r>
       <r>     0.8957     6.6494    44.9918 </r>
       <r>     1.0063     6.7059    45.7336 </r>
       <r>     1.1170     7.8200    46.5987 </r>
       <r>     1.2276     8.3117    47.5182 </r>
       <r>     1.3382     3.7917    47.9376 </r>
       <r>     1.4488     0.5502    47.9985 </r>
       <r>     1.5595     0.0136    48.0000 </r>
       <r>     1.6701     0.0000    48.0000 </r>
       <r>     1.7807     0.0000    48.0000 </r>
       <r>     1.8913     0.0000    48.0000 </r>
       <r>     2.0020     0.0000    48.0000 </r>
       <r>     2.1126     0.0000    48.0000 </r>
       <r>     2.2232     0.0000    48.0000 </r>
       <r>     2.3338     0.0000    48.0000 </r>
       <r>     2.4445     0.0000    48.0000 </r>
       <r>     2.5551     0.0000    48.0000 </r>
       <r>     2.6657     0.0000    48.0000 </r>
       <r>     2.7763     0.0000    48.0000 </r>
       <r>     2.8870     0.0000    48.0000 </r>
       <r>     2.9976     0.0000    48.0000 </r>
       <r>     3.1082     0.0000    48.0000 </r>
       <r>     3.2188     0.0000    48.0000 </r>
       <r>     3.3295     0.0000    48.0000 </r>
       <r>     3.4401     0.0000    48.0000 </r>
       <r>     3.5507     0.0000    48.0000 </r>
       <r>     3.6613     0.0000    48.0000 </r>
       <r>     3.7720     0.0000    48.0000 </r>
       <r>     3.8826     0.0000    48.0000 </r>
       <r>     3.9932     0.0000    48.0000 </r>
       <r>     4.1038     0.0000    48.0000 </r>
       <r>     4.2145     0.0000    48.0000 </r>
       <r>     4.3251     0.0000    48.0000 </r>
       <r>     4.4357     0.0000    48.0000 </r>
       <r>     4.5463     0.0000    48.0000 </r>
       <r>     4.6570     0.0000    48.0000 </r>
       <r>     4.7676     0.0000    48.0000 </r>
       <r>     4.8782     0.0000    48.0000 </r>
       <r>     4.9888     0.0000    48.0000 </r>
       <r>     5.0995     0.0000    48.0000 </r>
       <r>     5.2101     0.0000    48.0000 </r>
       <r>     5.3207     0.0000    48.0000 </r>
       <r>     5.4313     0.0000    48.0000 </r>
       <r>     5.5419     0.0000    48.0000 </r>
       <r>     5.6526     0.0000    48.0000 </r>
       <r>     5.7632     0.0000    48.0000 </r>
       <r>     5.8738     0.0000    48.0000 </r>
       <r>     5.9844     0.0000    48.0000 </r>
       <r>     6.0951     0.0000    48.0000 </r>
       <r>     6.2057     0.0000    48.0000 </r>
       <r>     6.3163     0.0000    48.0000 </r>
       <r>     6.4269     0.0000    48.0000 </r>
       <r>     6.5376     0.0000    48.0000 </r>
       <r>     6.6482     0.0000    48.0000 </r>
       <r>     6.7588     0.0000    48.0000 </r>
       <r>     6.8694     0.0000    48.0000 </r>
       <r>     6.9801     0.0000    48.0000 </r>
       <r>     7.0907     0.0001    48.0000 </r>
       <r>     7.2013     0.0117    48.0013 </r>
       <r>     7.3119     0.1111    48.0136 </r>
       <r>     7.4226     0.1368    48.0287 </r>
       <r>     7.5332     0.0223    48.0312 </r>
       <r>     7.6438     0.0004    48.0313 </r>
       <r>     7.7544     0.0029    48.0316 </r>
       <r>     7.8651     0.0865    48.0411 </r>
       <r>     7.9757     0.3138    48.0758 </r>
       <r>     8.0863     0.1846    48.0963 </r>
       <r>     8.1969     0.4942    48.1509 </r>
       <r>     8.3076     0.9308    48.2539 </r>
       <r>     8.4182     0.2400    48.2805 </r>
       <r>     8.5288     0.0555    48.2866 </r>
       <r>     8.6394     0.7998    48.3751 </r>
       <r>     8.7501     1.8604    48.5809 </r>
       <r>     8.8607     0.6498    48.6528 </r>
       <r>     8.9713     0.0313    48.6562 </r>
       <r>     9.0819     0.0006    48.6563 </r>
       <r>     9.1926     0.0282    48.6594 </r>
       <r>     9.3032     0.2492    48.6870 </r>
       <r>     9.4138     0.5698    48.7500 </r>
       <r>     9.5244     1.0725    48.8687 </r>
       <r>     9.6351     1.4398    49.0279 </r>
       <r>     9.7457     3.0563    49.3660 </r>
       <r>     9.8563     2.9851    49.6963 </r>
       <r>     9.9669     1.7647    49.8915 </r>
       <r>    10.0776     0.5497    49.9523 </r>
       <r>    10.1882     1.0705    50.0707 </r>
       <r>    10.2988     1.3744    50.2228 </r>
       <r>    10.4094     2.0423    50.4487 </r>
       <r>    10.5201     3.1192    50.7938 </r>
       <r>    10.6307     5.0294    51.3501 </r>
       <r>    10.7413     9.0484    52.3511 </r>
       <r>    10.8519     6.2247    53.0397 </r>
       <r>    10.9626     6.5007    53.7589 </r>
       <r>    11.0732     7.3887    54.5762 </r>
       <r>    11.1838     3.0358    54.9121 </r>
       <r>    11.2944     3.6496    55.3158 </r>
       <r>    11.4051     5.6485    55.9407 </r>
       <r>    11.5157     6.3238    56.6402 </r>
       <r>    11.6263     5.3685    57.2341 </r>
       <r>    11.7369     3.3683    57.6067 </r>
       <r>    11.8476     2.1794    57.8478 </r>
       <r>    11.9582     0.7450    57.9302 </r>
       <r>    12.0688     0.4951    57.9850 </r>
       <r>    12.1794     0.1311    57.9995 </r>
       <r>    12.2901     0.0044    58.0000 </r>
       <r>    12.4007     0.0000    58.0000 </r>
       <r>    12.5113     0.0000    58.0000 </r>
       <r>    12.6219     0.0000    58.0000 </r>
       <r>    12.7325     0.0000    58.0000 </r>
       <r>    12.8432     0.0000    58.0000 </r>
       <r>    12.9538     0.0000    58.0000 </r>
       <r>    13.0644     0.0000    58.0000 </r>
       <r>    13.1750     0.0000    58.0000 </r>
       <r>    13.2857     0.0000    58.0000 </r>
       <r>    13.3963     0.0000    58.0000 </r>
       <r>    13.5069     0.0000    58.0000 </r>
      </set>
     </set>
    </array>
   </total>
  </dos>
 </calculation>
 <structure name="finalpos" >
  <crystal>
   <varray name="basis" >
    <v>       4.87342988       0.00000000       0.00000000 </v>
    <v>      -2.43671494       4.22051408       0.00000000 </v>
    <v>       0.00000000       0.00000000       5.37418982 </v>
   </varray>
   <i name="volume">    110.53837516 </i>
   <varray name="rec_basis" >
    <v>       0.20519429       0.11846898      -0.00000000 </v>
    <v>       0.00000000       0.23693796       0.00000000 </v>
    <v>       0.00000000      -0.00000000       0.18607456 </v>
   </varray>
  </crystal>
  <varray name="positions" >
   <v>       0.46473068       0.00009546       0.66674039 </v>
   <v>       0.99990454       0.46463522       0.33340705 </v>
   <v>       0.53536478       0.53526932       0.00007372 </v>
   <v>       0.13567049       0.72402958       0.55412407 </v>
   <v>       0.27597042       0.41164091       0.22079073 </v>
   <v>       0.58835909       0.86432951       0.88745740 </v>
   <v>       0.41136981       0.27606456       0.77907986 </v>
   <v>       0.86469475       0.58863019       0.11241319 </v>
   <v>       0.72393544       0.13530525       0.44574652 </v>
  </varray>
 </structure>
</modeling>
