<?xml version="1.0" encoding="ISO-8859-1"?>
<modeling>
 <generator>
  <i name="program" type="string">vasp </i>
  <i name="version" type="string">6.4.1  </i>
  <i name="subversion" type="string">05Apr23 (build Sep  6 2023 20:49:31) complex                          parallel </i>
  <i name="platform" type="string">LinuxNV </i>
  <i name="date" type="string">2023 10 19 </i>
  <i name="time" type="string">14:05:35 </i>
 </generator>
 <incar>
  <i type="string" name="PREC">Accurate</i>
  <i type="string" name="ALGO">Fast</i>
  <i name="EDIFF">      0.00000001</i>
  <i name="ENCUT">    500.00000000</i>
  <i type="int" name="ISMEAR">     0</i>
  <i name="SIGMA">      0.10000000</i>
  <i type="logical" name="LEPSILON"> T  </i>
 </incar>
 <primitive_cell>
  <structure name="primitive_cell" >
   <crystal>
    <varray name="basis" >
     <v>       4.87342988       0.00000000       0.00000000 </v>
     <v>      -2.43671494       4.22051408       0.00000000 </v>
     <v>       0.00000000       0.00000000       5.37418982 </v>
    </varray>
    <i name="volume">    110.53837516 </i>
    <varray name="rec_basis" >
     <v>       0.20519429       0.11846898      -0.00000000 </v>
     <v>       0.00000000       0.23693796       0.00000000 </v>
     <v>       0.00000000      -0.00000000       0.18607456 </v>
    </varray>
   </crystal>
   <varray name="positions" >
    <v>       0.46452570       0.00000000       0.66666667 </v>
    <v>       0.00000000       0.46452570       0.33333333 </v>
    <v>       0.53547430       0.53547430       0.00000000 </v>
    <v>       0.13542180       0.72401582       0.55407965 </v>
    <v>       0.27598418       0.41140599       0.22074631 </v>
    <v>       0.58859401       0.86457820       0.88741298 </v>
    <v>       0.41140599       0.27598418       0.77925369 </v>
    <v>       0.86457820       0.58859401       0.11258702 </v>
    <v>       0.72401582       0.13542180       0.44592035 </v>
   </varray>
  </structure>
  <varray name="primitive_index" >
   <v type="int" >        1 </v>
   <v type="int" >        2 </v>
   <v type="int" >        3 </v>
   <v type="int" >        4 </v>
   <v type="int" >        5 </v>
   <v type="int" >        6 </v>
   <v type="int" >        7 </v>
   <v type="int" >        8 </v>
   <v type="int" >        9 </v>
  </varray>
 </primitive_cell>
 <kpoints>
  <generation param="Gamma">
   <v type="int" name="divisions">       4        4        4 </v>
   <v name="usershift">      0.00000000       0.00000000       0.00000000 </v>
   <v name="genvec1">      0.25000000       0.00000000       0.00000000 </v>
   <v name="genvec2">      0.00000000       0.25000000       0.00000000 </v>
   <v name="genvec3">      0.00000000       0.00000000       0.25000000 </v>
   <v name="shift">      0.00000000       0.00000000       0.00000000 </v>
  </generation>
  <varray name="kpointlist" >
   <v>       0.00000000       0.00000000       0.00000000 </v>
   <v>       0.25000000       0.00000000       0.00000000 </v>
   <v>       0.50000000       0.00000000       0.00000000 </v>
   <v>       0.25000000       0.25000000       0.00000000 </v>
   <v>       0.00000000       0.00000000       0.25000000 </v>
   <v>       0.25000000       0.00000000       0.25000000 </v>
   <v>       0.00000000       0.25000000       0.25000000 </v>
   <v>       0.50000000       0.00000000       0.25000000 </v>
   <v>       0.25000000       0.25000000       0.25000000 </v>
   <v>       0.00000000       0.00000000       0.50000000 </v>
   <v>       0.25000000       0.00000000       0.50000000 </v>
   <v>       0.50000000       0.00000000       0.50000000 </v>
   <v>       0.25000000       0.25000000       0.50000000 </v>
  </varray>
  <varray name="weights" >
   <v>       0.01562500 </v>
   <v>       0.09375000 </v>
   <v>       0.04687500 </v>
   <v>       0.09375000 </v>
   <v>       0.03125000 </v>
   <v>       0.09375000 </v>
   <v>       0.09375000 </v>
   <v>       0.09375000 </v>
   <v>       0.18750000 </v>
   <v>       0.01562500 </v>
   <v>       0.09375000 </v>
   <v>       0.04687500 </v>
   <v>       0.09375000 </v>
  </varray>
 </kpoints>
 <parameters>
  <separator name="general" >
   <i type="string" name="SYSTEM">unknown system</i>
   <i type="logical" name="LCOMPAT"> F  </i>
  </separator>
  <separator name="electronic" >
   <i type="string" name="PREC">accura</i>
   <i name="ENMAX">    500.00000000</i>
   <i name="ENAUG">    605.39200000</i>
   <i name="EDIFF">      0.00000001</i>
   <i type="int" name="IALGO">    68</i>
   <i type="int" name="IWAVPR">    10</i>
   <i type="int" name="NBANDS">    29</i>
   <i type="int" name="NBANDSLOW">    -1</i>
   <i type="int" name="NBANDSHIGH">    -1</i>
   <i name="NELECT">     48.00000000</i>
   <i type="int" name="TURBO">     0</i>
   <i type="int" name="IRESTART">     0</i>
   <i type="int" name="NREBOOT">     0</i>
   <i type="int" name="NMIN">     0</i>
   <i name="EREF">      0.00000000</i>
   <separator name="electronic smearing" >
    <i type="int" name="ISMEAR">     0</i>
    <i name="SIGMA">      0.10000000</i>
    <i name="KSPACING">      0.50000000</i>
    <i type="logical" name="KGAMMA"> T  </i>
    <i type="logical" name="KBLOWUP"> T  </i>
   </separator>
   <separator name="electronic projectors" >
    <i type="logical" name="LREAL"> F  </i>
    <v name="ROPT">      0.00000000      0.00000000</v>
    <i type="int" name="LMAXPAW">  -100</i>
    <i type="int" name="LMAXMIX">     2</i>
    <i type="logical" name="NLSPLINE"> F  </i>
   </separator>
   <separator name="electronic startup" >
    <i type="int" name="ISTART">     0</i>
    <i type="int" name="ICHARG">     2</i>
    <i type="int" name="INIWAV">     1</i>
   </separator>
   <separator name="electronic spin" >
    <i type="int" name="ISPIN">     1</i>
    <i type="logical" name="LNONCOLLINEAR"> F  </i>
    <v name="MAGMOM">      1.00000000      1.00000000      1.00000000      1.00000000      1.00000000      1.00000000      1.00000000      1.00000000      1.00000000</v>
    <i name="NUPDOWN">     -1.00000000</i>
    <i type="logical" name="LSORBIT"> F  </i>
    <v name="SAXIS">      0.00000000      0.00000000      1.00000000</v>
    <i type="logical" name="LSPIRAL"> F  </i>
    <v name="QSPIRAL">      0.00000000      0.00000000      0.00000000</v>
    <i type="logical" name="LZEROZ"> F  </i>
   </separator>
   <separator name="electronic exchange-correlation" >
    <i type="logical" name="LASPH"> F  </i>
    <i type="logical" name="LMETAGGA"> F  </i>
   </separator>
   <separator name="electronic convergence" >
    <i type="int" name="NELM">    60</i>
    <i type="int" name="NELMDL">    -5</i>
    <i type="int" name="NELMIN">     2</i>
    <i name="ENINI">    500.00000000</i>
    <separator name="electronic convergence detail" >
     <i type="logical" name="LDIAG"> T  </i>
     <i type="logical" name="LSUBROT"> F  </i>
     <i name="WEIMIN">      0.00000000</i>
     <i name="EBREAK">      0.00000000</i>
     <i name="DEPER">      0.30000000</i>
     <i type="int" name="NRMM">     4</i>
     <i name="TIME">      0.40000000</i>
    </separator>
   </separator>
   <separator name="electronic mixer" >
    <i name="AMIX">      0.40000000</i>
    <i name="BMIX">      1.00000000</i>
    <i name="AMIN">      0.10000000</i>
    <i name="AMIX_MAG">      1.60000000</i>
    <i name="BMIX_MAG">      1.00000000</i>
    <separator name="electronic mixer details" >
     <i type="int" name="IMIX">     4</i>
     <i type="logical" name="MIXFIRST"> F  </i>
     <i type="int" name="MAXMIX">   -45</i>
     <i name="WC">    100.00000000</i>
     <i type="int" name="INIMIX">     1</i>
     <i type="int" name="MIXPRE">     1</i>
     <i type="int" name="MREMOVE">     5</i>
    </separator>
   </separator>
   <separator name="electronic dipolcorrection" >
    <i type="logical" name="LDIPOL"> F  </i>
    <i type="logical" name="LMONO"> F  </i>
    <i type="int" name="IDIPOL">     0</i>
    <i name="EPSILON">      1.00000000</i>
    <v name="DIPOL">   -100.00000000   -100.00000000   -100.00000000</v>
    <i name="EFIELD">      0.00000000</i>
   </separator>
  </separator>
  <separator name="grids" >
   <i type="int" name="NGX">    36</i>
   <i type="int" name="NGY">    36</i>
   <i type="int" name="NGZ">    40</i>
   <i type="int" name="NGXF">    72</i>
   <i type="int" name="NGYF">    72</i>
   <i type="int" name="NGZF">    80</i>
   <i type="logical" name="ADDGRID"> F  </i>
  </separator>
  <separator name="ionic" >
   <i type="int" name="NSW">     0</i>
   <i type="int" name="IBRION">    -1</i>
   <i type="int" name="MDALGO">     0</i>
   <i type="int" name="ISIF">     2</i>
   <i name="PSTRESS">      0.00000000</i>
   <i name="EDIFFG">      0.00000010</i>
   <i type="int" name="NFREE">     0</i>
   <i name="POTIM">      0.50000000</i>
   <i name="SMASS">     -3.00000000</i>
   <i name="SCALEE">      1.00000000</i>
  </separator>
  <separator name="ionic md" >
   <i name="TEBEG">      0.00010000</i>
   <i name="TEEND">      0.00010000</i>
   <i type="int" name="NBLOCK">     1</i>
   <i type="int" name="KBLOCK">     1</i>
   <i type="int" name="NPACO">   256</i>
   <i name="APACO">     10.00000000</i>
  </separator>
  <separator name="symmetry" >
   <i type="int" name="ISYM">     2</i>
   <i name="SYMPREC">      0.00001000</i>
  </separator>
  <separator name="dos" >
   <i type="int" name="LORBIT">     0</i>
   <v name="RWIGS">     -1.00000000     -1.00000000</v>
   <i type="int" name="NEDOS">   301</i>
   <i name="EMIN">     10.00000000</i>
   <i name="EMAX">    -10.00000000</i>
   <i name="EFERMI">      0.00000000</i>
  </separator>
  <separator name="writing" >
   <i type="int" name="NWRITE">     2</i>
   <i type="logical" name="LWAVE"> T  </i>
   <i type="logical" name="LDOWNSAMPLE"> F  </i>
   <i type="logical" name="LCHARG"> T  </i>
   <i type="logical" name="LPARD"> F  </i>
   <i type="logical" name="LVTOT"> F  </i>
   <i type="logical" name="LVHAR"> F  </i>
   <i type="logical" name="LELF"> F  </i>
   <i type="logical" name="LOPTICS"> F  </i>
   <v name="STM">      0.00000000      0.00000000      0.00000000      0.00000000      0.00000000      0.00000000      0.00000000</v>
  </separator>
  <separator name="performance" >
   <i type="int" name="NPAR">     1</i>
   <i type="int" name="NSIM">     4</i>
   <i type="int" name="NBLK">    -1</i>
   <i type="logical" name="LPLANE"> T  </i>
   <i type="logical" name="LSCALAPACK"> T  </i>
   <i type="logical" name="LSCAAWARE"> F  </i>
   <i type="logical" name="LSCALU"> F  </i>
   <i type="logical" name="LASYNC"> F  </i>
   <i type="logical" name="LORBITALREAL"> F  </i>
  </separator>
  <separator name="miscellaneous" >
   <i type="int" name="IDIOT">     3</i>
   <i type="int" name="PHON_NSTRUCT">    -1</i>
   <i type="logical" name="LMUSIC"> F  </i>
   <v name="POMASS">     28.08500000     16.00000000</v>
   <v name="DARWINR">      0.00000000      0.00000000</v>
   <v name="DARWINV">      1.00000000      1.00000000</v>
   <i type="logical" name="LCORR"> T  </i>
  </separator>
  <i type="logical" name="GGA_COMPAT"> T  </i>
  <i type="logical" name="LBERRY"> F  </i>
  <i type="int" name="ICORELEVEL">     0</i>
  <i type="logical" name="LDAU"> F  </i>
  <i type="int" name="I_CONSTRAINED_M">     0</i>
  <separator name="electronic exchange-correlation" >
   <i type="string" name="GGA">--</i>
   <i type="int" name="VOSKOWN">     0</i>
   <i type="logical" name="LHFCALC"> F  </i>
   <i type="string" name="PRECFOCK"></i>
   <i type="logical" name="LSYMGRAD"> F  </i>
   <i type="logical" name="LHFONE"> F  </i>
   <i type="logical" name="LRHFCALC"> F  </i>
   <i type="logical" name="LTHOMAS"> F  </i>
   <i type="logical" name="LMODELHF"> F  </i>
   <i type="logical" name="LFOCKACE"> F  </i>
   <i name="ENCUT4O">     -1.00000000</i>
   <i type="int" name="EXXOEP">     0</i>
   <i type="int" name="FOURORBIT">     0</i>
   <i name="AEXX">      0.00000000</i>
   <i name="HFALPHA">      0.00000000</i>
   <i name="MCALPHA">      0.00000000</i>
   <i name="ALDAX">      1.00000000</i>
   <i name="AGGAX">      1.00000000</i>
   <i name="ALDAC">      1.00000000</i>
   <i name="AGGAC">      1.00000000</i>
   <i type="int" name="NKREDX">     1</i>
   <i type="int" name="NKREDY">     1</i>
   <i type="int" name="NKREDZ">     1</i>
   <i type="logical" name="SHIFTRED"> F  </i>
   <i type="logical" name="ODDONLY"> F  </i>
   <i type="logical" name="EVENONLY"> F  </i>
   <i type="int" name="LMAXFOCK">     0</i>
   <i type="int" name="NMAXFOCKAE">     0</i>
   <i type="logical" name="LFOCKAEDFT"> F  </i>
   <i name="HFSCREEN">      0.00000000</i>
   <i name="HFSCREENC">      0.00000000</i>
   <i type="int" name="NBANDSGWLOW">     0</i>
  </separator>
  <separator name="vdW DFT" >
   <i type="logical" name="LUSE_VDW"> F  </i>
   <i type="int" name="IVDW_NL">     1</i>
   <i type="logical" name="LSPIN_VDW"> F  </i>
   <i name="Zab_VDW">     -0.84910000</i>
   <i name="PARAM1">      0.12340000</i>
   <i name="PARAM2">      1.00000000</i>
   <i name="PARAM3">      0.00000000</i>
  </separator>
  <separator name="model GW" >
   <i type="int" name="MODEL_GW">     0</i>
   <i name="MODEL_EPS0">      7.36922501</i>
   <i name="MODEL_ALPHA">      1.00000000</i>
  </separator>
  <separator name="linear response parameters" >
   <i type="logical" name="LEPSILON"> T  </i>
   <i type="logical" name="LRPA"> F  </i>
   <i type="logical" name="LNABLA"> F  </i>
   <i type="logical" name="LVEL"> F  </i>
   <i name="CSHIFT">      0.10000000</i>
   <i name="OMEGAMAX">     -1.00000000</i>
   <i name="DEG_THRESHOLD">      0.00200000</i>
   <i name="RTIME">     -0.10000000</i>
   <i name="WPLASMAI">      0.00000000</i>
   <v name="DFIELD">      0.00000000      0.00000000      0.00000000</v>
   <v name="WPLASMA">      0.00000000      0.00000000      0.00000000      0.00000000      0.00000000      0.00000000      0.00000000      0.00000000      0.00000000</v>
  </separator>
  <separator name="orbital magnetization" >
   <i type="logical" name="NUCIND"> F  </i>
   <v name="MAGPOS">      0.00000000      0.00000000      0.00000000</v>
   <i type="logical" name="LNICSALL"> T  </i>
   <i type="logical" name="ORBITALMAG"> F  </i>
   <i type="logical" name="LMAGBLOCH"> F  </i>
   <i type="logical" name="LCHIMAG"> F  </i>
   <i type="logical" name="LGAUGE"> T  </i>
   <i type="int" name="MAGATOM">     0</i>
   <v name="MAGDIPOL">      0.00000000      0.00000000      0.00000000</v>
   <v name="AVECCONST">      0.00000000      0.00000000      0.00000000</v>
  </separator>
  <separator name="response functions" >
   <i type="logical" name="LALL_IN_ONE"> F  </i>
   <i type="int" name="IALL_IN_ONE">    -1</i>
   <i type="int" name="NBANDS_WAVE">    -1</i>
   <i type="logical" name="LFINITE_TEMPERATURE"> F  </i>
   <i type="logical" name="LADDER"> F  </i>
   <i type="logical" name="LRPAFORCE"> F  </i>
   <i type="logical" name="LFXC"> F  </i>
   <i type="logical" name="LHARTREE"> T  </i>
   <i type="int" name="IBSE">     0</i>
   <v type="int" name="KPOINT">    -1     0     0     0</v>
   <i type="logical" name="LTCTC"> F  </i>
   <i type="logical" name="LTCTE"> F  </i>
   <i type="logical" name="LTETE"> F  </i>
   <i type="logical" name="LTRIPLET"> F  </i>
   <i type="logical" name="LFXCEPS"> F  </i>
   <i type="logical" name="LFXHEG"> F  </i>
   <i type="int" name="NATURALO">     2</i>
   <i type="logical" name="LHOLEGF"> F  </i>
   <i type="logical" name="L2ORDER"> F  </i>
   <i type="logical" name="LDMP1"> F  </i>
   <i type="logical" name="LMP2LT"> F  </i>
   <i type="logical" name="LSMP2LT"> F  </i>
   <i type="logical" name="LGWLF"> F  </i>
   <i name="ENCUTGW">     -1.60000002</i>
   <i name="ENCUTGWSOFT">     -1.60000002</i>
   <i name="ENCUTLF">     -1.00000000</i>
   <i type="logical" name="LESF_SPLINES"> F  </i>
   <i type="int" name="LMAXMP2">    -1</i>
   <i name="SCISSOR">      0.00000000</i>
   <i type="int" name="NOMEGA">     0</i>
   <i type="int" name="NOMEGAR">     0</i>
   <i type="int" name="NBANDSGW">    -1</i>
   <i type="int" name="NBANDSO">    -1</i>
   <i type="int" name="NBANDSV">    -1</i>
   <i type="int" name="NELMGW">     1</i>
   <i type="int" name="NELMHF">     1</i>
   <i type="int" name="DIM">     3</i>
   <i type="int" name="IESPILON">     4</i>
   <i type="int" name="ANTIRES">     0</i>
   <i name="OMEGAMAX">    -30.00000000</i>
   <i name="OMEGAMIN">    -30.00000000</i>
   <i name="OMEGATL">   -200.00000000</i>
   <i type="int" name="OMEGAGRID">     0</i>
   <i name="CSHIFT">     -0.10000000</i>
   <i type="logical" name="LSELFENERGY"> F  </i>
   <i type="logical" name="LSPECTRAL"> F  </i>
   <i type="logical" name="LSPECTRALGW"> F  </i>
   <i type="logical" name="LSINGLES"> F  </i>
   <i type="logical" name="LFERMIGW"> F  </i>
   <i type="logical" name="ODDONLYGW"> F  </i>
   <i type="logical" name="EVENONLYGW"> F  </i>
   <i type="int" name="NKREDLFX">     1</i>
   <i type="int" name="NKREDLFY">     1</i>
   <i type="int" name="NKREDLFZ">     1</i>
   <i type="int" name="MAXMEM">  2800</i>
   <i type="int" name="TELESCOPE">     0</i>
   <i type="int" name="NTAUPAR">    -1</i>
   <i type="int" name="NOMEGAPAR">    -1</i>
   <i name="DAMP_NEWTON">      0.80000001</i>
   <i name="LAMBDA">      1.00000000</i>
  </separator>
  <separator name="External order field" >
   <i name="OFIELD_KAPPA">      0.00000000</i>
   <v name="OFIELD_K">      0.00000000      0.00000000      0.00000000</v>
   <i name="OFIELD_Q6_NEAR">      0.00000000</i>
   <i name="OFIELD_Q6_FAR">      0.00000000</i>
   <i name="OFIELD_A">      0.00000000</i>
  </separator>
  <separator name="optional k-points parameters" >
   <i type="int" name="KPOINTS_OPT_MODE">     1</i>
   <i type="logical" name="LKPOINTS_OPT"> F  </i>
  </separator>
 </parameters>
 <atominfo>
  <atoms>       9 </atoms>
  <types>       2 </types>
  <array name="atoms" >
   <dimension dim="1">ion</dimension>
   <field type="string">element</field>
   <field type="int">atomtype</field>
   <set>
    <rc><c>Si</c><c>   1</c></rc>
    <rc><c>Si</c><c>   1</c></rc>
    <rc><c>Si</c><c>   1</c></rc>
    <rc><c>O </c><c>   2</c></rc>
    <rc><c>O </c><c>   2</c></rc>
    <rc><c>O </c><c>   2</c></rc>
    <rc><c>O </c><c>   2</c></rc>
    <rc><c>O </c><c>   2</c></rc>
    <rc><c>O </c><c>   2</c></rc>
   </set>
  </array>
  <array name="atomtypes" >
   <dimension dim="1">type</dimension>
   <field type="int">atomspertype</field>
   <field type="string">element</field>
   <field>mass</field>
   <field>valence</field>
   <field type="string">pseudopotential</field>
   <set>
    <rc><c>   3</c><c>Si</c><c>     28.08500000</c><c>      4.00000000</c><c>  PAW_PBE Si 05Jan2001                  </c></rc>
    <rc><c>   6</c><c>O </c><c>     16.00000000</c><c>      6.00000000</c><c>  PAW_PBE O 08Apr2002                   </c></rc>
   </set>
  </array>
 </atominfo>
 <structure name="initialpos" >
  <crystal>
   <varray name="basis" >
    <v>       4.87342988       0.00000000       0.00000000 </v>
    <v>      -2.43671494       4.22051408       0.00000000 </v>
    <v>       0.00000000       0.00000000       5.37418982 </v>
   </varray>
   <i name="volume">    110.53837516 </i>
   <varray name="rec_basis" >
    <v>       0.20519429       0.11846898      -0.00000000 </v>
    <v>       0.00000000       0.23693796       0.00000000 </v>
    <v>       0.00000000      -0.00000000       0.18607456 </v>
   </varray>
  </crystal>
  <varray name="positions" >
   <v>       0.46452570       0.00000000       0.66666667 </v>
   <v>       0.00000000       0.46452570       0.33333333 </v>
   <v>       0.53547430       0.53547430       0.00000000 </v>
   <v>       0.13542180       0.72401582       0.55407965 </v>
   <v>       0.27598418       0.41140599       0.22074631 </v>
   <v>       0.58859401       0.86457820       0.88741298 </v>
   <v>       0.41140599       0.27598418       0.77925369 </v>
   <v>       0.86457820       0.58859401       0.11258702 </v>
   <v>       0.72401582       0.13542180       0.44592035 </v>
  </varray>
 </structure>
 <calculation>
  <scstep>
   <time name="dav">    0.49    0.52</time>
   <time name="total">    0.53    0.54</time>
   <energy>
    <i name="alphaZ">     71.30271804 </i>
    <i name="ewald">  -1930.26313149 </i>
    <i name="hartreedc">   -909.33298957 </i>
    <i name="XCdc">    141.70929699 </i>
    <i name="pawpsdc">   2343.66826019 </i>
    <i name="pawaedc">  -2301.68043871 </i>
    <i name="eentropy">     -0.00332761 </i>
    <i name="bandstr">    -13.59446437 </i>
    <i name="atom">   2903.33737771 </i>
    <i name="e_fr_energy">    305.14330118 </i>
    <i name="e_wo_entrp">    305.14662879 </i>
    <i name="e_0_energy">    305.14496498 </i>
   </energy>
  </scstep>
  <scstep>
   <time name="dav">    0.45    0.45</time>
   <time name="total">    0.45    0.45</time>
   <energy>
    <i name="e_fr_energy">    -60.80456456 </i>
    <i name="e_wo_entrp">    -60.80456456 </i>
    <i name="e_0_energy">    -60.80456456 </i>
   </energy>
  </scstep>
  <scstep>
   <time name="dav">    0.42    0.42</time>
   <time name="total">    0.42    0.42</time>
   <energy>
    <i name="e_fr_energy">    -80.16563660 </i>
    <i name="e_wo_entrp">    -80.16563660 </i>
    <i name="e_0_energy">    -80.16563660 </i>
   </energy>
  </scstep>
  <scstep>
   <time name="dav">    0.42    0.42</time>
   <time name="total">    0.42    0.42</time>
   <energy>
    <i name="e_fr_energy">    -80.41851427 </i>
    <i name="e_wo_entrp">    -80.41851427 </i>
    <i name="e_0_energy">    -80.41851427 </i>
   </energy>
  </scstep>
  <scstep>
   <time name="dav">    0.41    0.41</time>
   <time name="total">    0.50    0.47</time>
   <energy>
    <i name="e_fr_energy">    -80.42351300 </i>
    <i name="e_wo_entrp">    -80.42351300 </i>
    <i name="e_0_energy">    -80.42351300 </i>
   </energy>
  </scstep>
  <scstep>
   <time name="diag">    0.05    0.04</time>
   <time name="diis">    0.47    0.47</time>
   <time name="orth">    0.00    0.00</time>
   <time name="total">    0.63    0.59</time>
   <energy>
    <i name="e_fr_energy">    -70.67378743 </i>
    <i name="e_wo_entrp">    -70.67378743 </i>
    <i name="e_0_energy">    -70.67378743 </i>
   </energy>
  </scstep>
  <scstep>
   <time name="diag">    0.05    0.04</time>
   <time name="diis">    0.52    0.52</time>
   <time name="orth">    0.00    0.00</time>
   <time name="total">    0.69    0.64</time>
   <energy>
    <i name="e_fr_energy">    -70.97656848 </i>
    <i name="e_wo_entrp">    -70.97656848 </i>
    <i name="e_0_energy">    -70.97656848 </i>
   </energy>
  </scstep>
  <scstep>
   <time name="diag">    0.05    0.04</time>
   <time name="diis">    0.52    0.52</time>
   <time name="orth">    0.00    0.00</time>
   <time name="total">    0.69    0.64</time>
   <energy>
    <i name="e_fr_energy">    -70.96845107 </i>
    <i name="e_wo_entrp">    -70.96845107 </i>
    <i name="e_0_energy">    -70.96845107 </i>
   </energy>
  </scstep>
  <scstep>
   <time name="diag">    0.05    0.04</time>
   <time name="diis">    0.53    0.53</time>
   <time name="orth">    0.00    0.00</time>
   <time name="total">    0.70    0.64</time>
   <energy>
    <i name="e_fr_energy">    -70.98754146 </i>
    <i name="e_wo_entrp">    -70.98754146 </i>
    <i name="e_0_energy">    -70.98754146 </i>
   </energy>
  </scstep>
  <scstep>
   <time name="diag">    0.05    0.04</time>
   <time name="diis">    0.53    0.53</time>
   <time name="orth">    0.00    0.00</time>
   <time name="total">    0.70    0.65</time>
   <energy>
    <i name="e_fr_energy">    -70.99285474 </i>
    <i name="e_wo_entrp">    -70.99285474 </i>
    <i name="e_0_energy">    -70.99285474 </i>
   </energy>
  </scstep>
  <scstep>
   <time name="diag">    0.05    0.04</time>
   <time name="diis">    0.53    0.53</time>
   <time name="orth">    0.00    0.00</time>
   <time name="total">    0.70    0.64</time>
   <energy>
    <i name="e_fr_energy">    -70.98897413 </i>
    <i name="e_wo_entrp">    -70.98897413 </i>
    <i name="e_0_energy">    -70.98897413 </i>
   </energy>
  </scstep>
  <scstep>
   <time name="diag">    0.05    0.04</time>
   <time name="diis">    0.53    0.53</time>
   <time name="orth">    0.00    0.00</time>
   <time name="total">    0.70    0.65</time>
   <energy>
    <i name="e_fr_energy">    -70.98957435 </i>
    <i name="e_wo_entrp">    -70.98957435 </i>
    <i name="e_0_energy">    -70.98957435 </i>
   </energy>
  </scstep>
  <scstep>
   <time name="diag">    0.05    0.04</time>
   <time name="diis">    0.56    0.57</time>
   <time name="orth">    0.00    0.00</time>
   <time name="total">    0.74    0.68</time>
   <energy>
    <i name="e_fr_energy">    -70.98933671 </i>
    <i name="e_wo_entrp">    -70.98933671 </i>
    <i name="e_0_energy">    -70.98933671 </i>
   </energy>
  </scstep>
  <scstep>
   <time name="diag">    0.05    0.04</time>
   <time name="diis">    0.54    0.54</time>
   <time name="orth">    0.00    0.00</time>
   <time name="total">    0.71    0.66</time>
   <energy>
    <i name="e_fr_energy">    -70.98929805 </i>
    <i name="e_wo_entrp">    -70.98929805 </i>
    <i name="e_0_energy">    -70.98929805 </i>
   </energy>
  </scstep>
  <scstep>
   <time name="diag">    0.05    0.04</time>
   <time name="diis">    0.58    0.58</time>
   <time name="orth">    0.00    0.00</time>
   <time name="total">    0.75    0.70</time>
   <energy>
    <i name="e_fr_energy">    -70.98929438 </i>
    <i name="e_wo_entrp">    -70.98929438 </i>
    <i name="e_0_energy">    -70.98929438 </i>
   </energy>
  </scstep>
  <scstep>
   <time name="diag">    0.05    0.04</time>
   <time name="diis">    0.53    0.54</time>
   <time name="orth">    0.00    0.00</time>
   <time name="total">    0.71    0.65</time>
   <energy>
    <i name="e_fr_energy">    -70.98929321 </i>
    <i name="e_wo_entrp">    -70.98929321 </i>
    <i name="e_0_energy">    -70.98929321 </i>
   </energy>
  </scstep>
  <scstep>
   <time name="diag">    0.05    0.04</time>
   <time name="diis">    0.53    0.54</time>
   <time name="orth">    0.00    0.00</time>
   <time name="total">    0.70    0.65</time>
   <energy>
    <i name="e_fr_energy">    -70.98929341 </i>
    <i name="e_wo_entrp">    -70.98929341 </i>
    <i name="e_0_energy">    -70.98929341 </i>
   </energy>
  </scstep>
  <scstep>
   <time name="diag">    0.05    0.04</time>
   <time name="diis">    0.58    0.58</time>
   <time name="orth">    0.00    0.00</time>
   <time name="total">    0.75    0.70</time>
   <energy>
    <i name="e_fr_energy">    -70.98929359 </i>
    <i name="e_wo_entrp">    -70.98929359 </i>
    <i name="e_0_energy">    -70.98929359 </i>
   </energy>
  </scstep>
  <scstep>
   <time name="diag">    0.05    0.04</time>
   <time name="diis">    0.53    0.54</time>
   <time name="orth">    0.00    0.00</time>
   <time name="total">    0.71    0.65</time>
   <energy>
    <i name="e_fr_energy">    -70.98929357 </i>
    <i name="e_wo_entrp">    -70.98929357 </i>
    <i name="e_0_energy">    -70.98929357 </i>
   </energy>
  </scstep>
  <scstep>
   <time name="diag">    0.05    0.04</time>
   <time name="diis">    0.53    0.53</time>
   <time name="orth">    0.00    0.00</time>
   <time name="total">    0.71    0.65</time>
   <energy>
    <i name="e_fr_energy">    -70.98929361 </i>
    <i name="e_wo_entrp">    -70.98929361 </i>
    <i name="e_0_energy">    -70.98929361 </i>
   </energy>
  </scstep>
  <scstep>
   <time name="diag">    0.05    0.04</time>
   <time name="diis">    0.36    0.36</time>
   <time name="orth">    0.00    0.00</time>
   <time name="total">    0.53    0.48</time>
   <energy>
    <i name="e_fr_energy">    -70.98929359 </i>
    <i name="e_wo_entrp">    -70.98929359 </i>
    <i name="e_0_energy">    -70.98929359 </i>
   </energy>
  </scstep>
  <scstep>
   <time name="diag">    0.05    0.04</time>
   <time name="diis">    0.35    0.35</time>
   <time name="orth">    0.00    0.00</time>
   <time name="total">    0.43    0.41</time>
   <energy>
    <i name="alphaZ">     71.30271804 </i>
    <i name="ewald">  -1930.26313149 </i>
    <i name="hartreedc">  -1040.48914589 </i>
    <i name="XCdc">    150.68496796 </i>
    <i name="pawpsdc">   8045.20291241 </i>
    <i name="pawaedc">  -8005.58078131 </i>
    <i name="eentropy">     -0.00000000 </i>
    <i name="bandstr">   -265.18421101 </i>
    <i name="atom">   2903.33737771 </i>
    <i name="e_fr_energy">    -70.98929358 </i>
    <i name="e_wo_entrp">    -70.98929358 </i>
    <i name="e_0_energy">    -70.98929358 </i>
   </energy>
  </scstep>
  <structure>
   <crystal>
    <varray name="basis" >
     <v>       4.87342988       0.00000000       0.00000000 </v>
     <v>      -2.43671494       4.22051408       0.00000000 </v>
     <v>       0.00000000       0.00000000       5.37418982 </v>
    </varray>
    <i name="volume">    110.53837516 </i>
    <varray name="rec_basis" >
     <v>       0.20519429       0.11846898      -0.00000000 </v>
     <v>       0.00000000       0.23693796       0.00000000 </v>
     <v>       0.00000000      -0.00000000       0.18607456 </v>
    </varray>
   </crystal>
   <varray name="positions" >
    <v>       0.46452570       0.00000000       0.66666667 </v>
    <v>       0.00000000       0.46452570       0.33333333 </v>
    <v>       0.53547430       0.53547430       0.00000000 </v>
    <v>       0.13542180       0.72401582       0.55407965 </v>
    <v>       0.27598418       0.41140599       0.22074631 </v>
    <v>       0.58859401       0.86457820       0.88741298 </v>
    <v>       0.41140599       0.27598418       0.77925369 </v>
    <v>       0.86457820       0.58859401       0.11258702 </v>
    <v>       0.72401582       0.13542180       0.44592035 </v>
   </varray>
  </structure>
  <varray name="forces" >
   <v>       0.02694457      -0.00000000      -0.00000000 </v>
   <v>      -0.01347229       0.02333469      -0.00000000 </v>
   <v>      -0.01347229      -0.02333469      -0.00000000 </v>
   <v>      -0.27259537      -0.00201439       0.15719703 </v>
   <v>       0.13804219      -0.23506732       0.15719703 </v>
   <v>       0.13455317       0.23708171       0.15719703 </v>
   <v>      -0.27259537       0.00201439      -0.15719703 </v>
   <v>       0.13804219       0.23506732      -0.15719703 </v>
   <v>       0.13455317      -0.23708171      -0.15719703 </v>
  </varray>
  <varray name="stress" >
   <v>      71.87144476       0.00000000       0.00000000 </v>
   <v>       0.00000000      71.87144476      -0.00000000 </v>
   <v>       0.00000000       0.00000000      73.65758172 </v>
  </varray>
  <energy>
   <i name="e_fr_energy">    -70.98929358 </i>
   <i name="e_wo_entrp">    -70.98929358 </i>
   <i name="e_0_energy">    -70.98929358 </i>
  </energy>
  <scstep>
   <time name="total">    6.75    1.43</time>
   <energy>
    <i name="e_fr_energy">   -182.68069054 </i>
    <i name="e_wo_entrp">   -182.68069054 </i>
    <i name="e_0_energy">   -182.68069054 </i>
   </energy>
  </scstep>
  <scstep>
   <time name="total">    6.60    1.26</time>
   <energy>
    <i name="e_fr_energy">   -172.55262696 </i>
    <i name="e_wo_entrp">   -172.55262696 </i>
    <i name="e_0_energy">   -172.55262696 </i>
   </energy>
  </scstep>
  <scstep>
   <time name="total">    6.78    1.33</time>
   <energy>
    <i name="e_fr_energy">   -172.69882390 </i>
    <i name="e_wo_entrp">   -172.69882390 </i>
    <i name="e_0_energy">   -172.69882390 </i>
   </energy>
  </scstep>
  <scstep>
   <time name="total">    0.51    0.51</time>
   <energy>
    <i name="e_fr_energy">   -172.70620782 </i>
    <i name="e_wo_entrp">   -172.70620782 </i>
    <i name="e_0_energy">   -172.70620782 </i>
   </energy>
  </scstep>
  <scstep>
   <time name="total">    0.51    0.51</time>
   <energy>
    <i name="e_fr_energy">   -172.70637856 </i>
    <i name="e_wo_entrp">   -172.70637856 </i>
    <i name="e_0_energy">   -172.70637856 </i>
   </energy>
  </scstep>
  <scstep>
   <time name="total">    0.51    0.51</time>
   <energy>
    <i name="e_fr_energy">   -172.70638912 </i>
    <i name="e_wo_entrp">   -172.70638912 </i>
    <i name="e_0_energy">   -172.70638912 </i>
   </energy>
  </scstep>
  <scstep>
   <time name="total">    0.51    0.52</time>
   <energy>
    <i name="e_fr_energy">   -172.70638840 </i>
    <i name="e_wo_entrp">   -172.70638840 </i>
    <i name="e_0_energy">   -172.70638840 </i>
   </energy>
  </scstep>
  <scstep>
   <time name="total">    0.51    0.51</time>
   <energy>
    <i name="e_fr_energy">   -172.70638592 </i>
    <i name="e_wo_entrp">   -172.70638592 </i>
    <i name="e_0_energy">   -172.70638592 </i>
   </energy>
  </scstep>
  <scstep>
   <time name="total">    0.51    0.51</time>
   <energy>
    <i name="e_fr_energy">   -172.70638528 </i>
    <i name="e_wo_entrp">   -172.70638528 </i>
    <i name="e_0_energy">   -172.70638528 </i>
   </energy>
  </scstep>
  <scstep>
   <time name="total">    0.52    0.52</time>
   <energy>
    <i name="e_fr_energy">   -172.70638583 </i>
    <i name="e_wo_entrp">   -172.70638583 </i>
    <i name="e_0_energy">   -172.70638583 </i>
   </energy>
  </scstep>
  <scstep>
   <time name="total">    6.68    1.42</time>
   <energy>
    <i name="e_fr_energy">   -182.13132545 </i>
    <i name="e_wo_entrp">   -182.13132545 </i>
    <i name="e_0_energy">   -182.13132545 </i>
   </energy>
  </scstep>
  <scstep>
   <time name="total">    6.91    1.29</time>
   <energy>
    <i name="e_fr_energy">   -172.66812198 </i>
    <i name="e_wo_entrp">   -172.66812198 </i>
    <i name="e_0_energy">   -172.66812198 </i>
   </energy>
  </scstep>
  <scstep>
   <time name="total">    6.78    1.29</time>
   <energy>
    <i name="e_fr_energy">   -172.81091914 </i>
    <i name="e_wo_entrp">   -172.81091914 </i>
    <i name="e_0_energy">   -172.81091914 </i>
   </energy>
  </scstep>
  <scstep>
   <time name="total">    0.51    0.51</time>
   <energy>
    <i name="e_fr_energy">   -172.81821893 </i>
    <i name="e_wo_entrp">   -172.81821893 </i>
    <i name="e_0_energy">   -172.81821893 </i>
   </energy>
  </scstep>
  <scstep>
   <time name="total">    0.51    0.51</time>
   <energy>
    <i name="e_fr_energy">   -172.81840591 </i>
    <i name="e_wo_entrp">   -172.81840591 </i>
    <i name="e_0_energy">   -172.81840591 </i>
   </energy>
  </scstep>
  <scstep>
   <time name="total">    0.51    0.52</time>
   <energy>
    <i name="e_fr_energy">   -172.81842235 </i>
    <i name="e_wo_entrp">   -172.81842235 </i>
    <i name="e_0_energy">   -172.81842235 </i>
   </energy>
  </scstep>
  <scstep>
   <time name="total">    0.52    0.52</time>
   <energy>
    <i name="e_fr_energy">   -172.81842406 </i>
    <i name="e_wo_entrp">   -172.81842406 </i>
    <i name="e_0_energy">   -172.81842406 </i>
   </energy>
  </scstep>
  <scstep>
   <time name="total">    0.51    0.52</time>
   <energy>
    <i name="e_fr_energy">   -172.81842529 </i>
    <i name="e_wo_entrp">   -172.81842529 </i>
    <i name="e_0_energy">   -172.81842529 </i>
   </energy>
  </scstep>
  <scstep>
   <time name="total">    0.51    0.51</time>
   <energy>
    <i name="e_fr_energy">   -172.81842427 </i>
    <i name="e_wo_entrp">   -172.81842427 </i>
    <i name="e_0_energy">   -172.81842427 </i>
   </energy>
  </scstep>
  <scstep>
   <time name="total">    0.51    0.51</time>
   <energy>
    <i name="e_fr_energy">   -172.81842369 </i>
    <i name="e_wo_entrp">   -172.81842369 </i>
    <i name="e_0_energy">   -172.81842369 </i>
   </energy>
  </scstep>
  <scstep>
   <time name="total">    6.74    1.44</time>
   <energy>
    <i name="e_fr_energy">   -182.23854106 </i>
    <i name="e_wo_entrp">   -182.23854106 </i>
    <i name="e_0_energy">   -182.23854106 </i>
   </energy>
  </scstep>
  <scstep>
   <time name="total">    6.55    1.24</time>
   <energy>
    <i name="e_fr_energy">   -172.55701185 </i>
    <i name="e_wo_entrp">   -172.55701185 </i>
    <i name="e_0_energy">   -172.55701185 </i>
   </energy>
  </scstep>
  <scstep>
   <time name="total">    6.59    1.26</time>
   <energy>
    <i name="e_fr_energy">   -172.70969173 </i>
    <i name="e_wo_entrp">   -172.70969173 </i>
    <i name="e_0_energy">   -172.70969173 </i>
   </energy>
  </scstep>
  <scstep>
   <time name="total">    0.51    0.51</time>
   <energy>
    <i name="e_fr_energy">   -172.71706394 </i>
    <i name="e_wo_entrp">   -172.71706394 </i>
    <i name="e_0_energy">   -172.71706394 </i>
   </energy>
  </scstep>
  <scstep>
   <time name="total">    0.51    0.51</time>
   <energy>
    <i name="e_fr_energy">   -172.71722442 </i>
    <i name="e_wo_entrp">   -172.71722442 </i>
    <i name="e_0_energy">   -172.71722442 </i>
   </energy>
  </scstep>
  <scstep>
   <time name="total">    0.51    0.51</time>
   <energy>
    <i name="e_fr_energy">   -172.71722865 </i>
    <i name="e_wo_entrp">   -172.71722865 </i>
    <i name="e_0_energy">   -172.71722865 </i>
   </energy>
  </scstep>
  <scstep>
   <time name="total">    0.52    0.52</time>
   <energy>
    <i name="e_fr_energy">   -172.71722957 </i>
    <i name="e_wo_entrp">   -172.71722957 </i>
    <i name="e_0_energy">   -172.71722957 </i>
   </energy>
  </scstep>
  <scstep>
   <time name="total">    0.51    0.51</time>
   <energy>
    <i name="e_fr_energy">   -172.71722842 </i>
    <i name="e_wo_entrp">   -172.71722842 </i>
    <i name="e_0_energy">   -172.71722842 </i>
   </energy>
  </scstep>
  <scstep>
   <time name="total">    0.51    0.51</time>
   <energy>
    <i name="e_fr_energy">   -172.71722070 </i>
    <i name="e_wo_entrp">   -172.71722070 </i>
    <i name="e_0_energy">   -172.71722070 </i>
   </energy>
  </scstep>
  <scstep>
   <time name="total">    0.51    0.51</time>
   <energy>
    <i name="e_fr_energy">   -172.71722333 </i>
    <i name="e_wo_entrp">   -172.71722333 </i>
    <i name="e_0_energy">   -172.71722333 </i>
   </energy>
  </scstep>
  <scstep>
   <time name="total">    1.22    0.74</time>
   <energy>
    <i name="e_fr_energy">     -0.48228209 </i>
    <i name="e_wo_entrp">     -0.48228209 </i>
    <i name="e_0_energy">     -0.48228209 </i>
   </energy>
  </scstep>
  <scstep>
   <time name="total">    1.20    0.73</time>
   <energy>
    <i name="e_fr_energy">     -0.48469491 </i>
    <i name="e_wo_entrp">     -0.48469491 </i>
    <i name="e_0_energy">     -0.48469491 </i>
   </energy>
  </scstep>
  <scstep>
   <time name="total">    1.20    0.73</time>
   <energy>
    <i name="e_fr_energy">     -0.48487832 </i>
    <i name="e_wo_entrp">     -0.48487832 </i>
    <i name="e_0_energy">     -0.48487832 </i>
   </energy>
  </scstep>
  <scstep>
   <time name="total">    1.21    0.74</time>
   <energy>
    <i name="e_fr_energy">     -0.48488700 </i>
    <i name="e_wo_entrp">     -0.48488700 </i>
    <i name="e_0_energy">     -0.48488700 </i>
   </energy>
  </scstep>
  <scstep>
   <time name="total">    1.21    0.73</time>
   <energy>
    <i name="e_fr_energy">     -0.48488730 </i>
    <i name="e_wo_entrp">     -0.48488730 </i>
    <i name="e_0_energy">     -0.48488730 </i>
   </energy>
  </scstep>
  <scstep>
   <time name="total">    1.18    0.70</time>
   <energy>
    <i name="e_fr_energy">     -0.48488732 </i>
    <i name="e_wo_entrp">     -0.48488732 </i>
    <i name="e_0_energy">     -0.48488732 </i>
   </energy>
  </scstep>
  <scstep>
   <time name="total">    1.15    0.67</time>
   <energy>
    <i name="e_fr_energy">     -0.48488732 </i>
    <i name="e_wo_entrp">     -0.48488732 </i>
    <i name="e_0_energy">     -0.48488732 </i>
   </energy>
  </scstep>
  <scstep>
   <time name="total">    1.13    0.66</time>
   <energy>
    <i name="e_fr_energy">     -0.48488732 </i>
    <i name="e_wo_entrp">     -0.48488732 </i>
    <i name="e_0_energy">     -0.48488732 </i>
   </energy>
  </scstep>
  <scstep>
   <time name="total">    1.12    0.65</time>
   <energy>
    <i name="e_fr_energy">     -0.48488732 </i>
    <i name="e_wo_entrp">     -0.48488732 </i>
    <i name="e_0_energy">     -0.48488732 </i>
   </energy>
  </scstep>
  <scstep>
   <time name="total">    1.21    0.73</time>
   <energy>
    <i name="e_fr_energy">     -0.48401283 </i>
    <i name="e_wo_entrp">     -0.48401283 </i>
    <i name="e_0_energy">     -0.48401283 </i>
   </energy>
  </scstep>
  <scstep>
   <time name="total">    1.20    0.73</time>
   <energy>
    <i name="e_fr_energy">     -0.48620323 </i>
    <i name="e_wo_entrp">     -0.48620323 </i>
    <i name="e_0_energy">     -0.48620323 </i>
   </energy>
  </scstep>
  <scstep>
   <time name="total">    1.20    0.73</time>
   <energy>
    <i name="e_fr_energy">     -0.48639661 </i>
    <i name="e_wo_entrp">     -0.48639661 </i>
    <i name="e_0_energy">     -0.48639661 </i>
   </energy>
  </scstep>
  <scstep>
   <time name="total">    1.22    0.74</time>
   <energy>
    <i name="e_fr_energy">     -0.48640543 </i>
    <i name="e_wo_entrp">     -0.48640543 </i>
    <i name="e_0_energy">     -0.48640543 </i>
   </energy>
  </scstep>
  <scstep>
   <time name="total">    1.21    0.73</time>
   <energy>
    <i name="e_fr_energy">     -0.48640575 </i>
    <i name="e_wo_entrp">     -0.48640575 </i>
    <i name="e_0_energy">     -0.48640575 </i>
   </energy>
  </scstep>
  <scstep>
   <time name="total">    1.17    0.70</time>
   <energy>
    <i name="e_fr_energy">     -0.48640577 </i>
    <i name="e_wo_entrp">     -0.48640577 </i>
    <i name="e_0_energy">     -0.48640577 </i>
   </energy>
  </scstep>
  <scstep>
   <time name="total">    1.14    0.67</time>
   <energy>
    <i name="e_fr_energy">     -0.48640577 </i>
    <i name="e_wo_entrp">     -0.48640577 </i>
    <i name="e_0_energy">     -0.48640577 </i>
   </energy>
  </scstep>
  <scstep>
   <time name="total">    1.13    0.66</time>
   <energy>
    <i name="e_fr_energy">     -0.48640577 </i>
    <i name="e_wo_entrp">     -0.48640577 </i>
    <i name="e_0_energy">     -0.48640577 </i>
   </energy>
  </scstep>
  <scstep>
   <time name="total">    1.12    0.65</time>
   <energy>
    <i name="e_fr_energy">     -0.48640577 </i>
    <i name="e_wo_entrp">     -0.48640577 </i>
    <i name="e_0_energy">     -0.48640577 </i>
   </energy>
  </scstep>
  <scstep>
   <time name="total">    1.21    0.73</time>
   <energy>
    <i name="e_fr_energy">     -0.48750807 </i>
    <i name="e_wo_entrp">     -0.48750807 </i>
    <i name="e_0_energy">     -0.48750807 </i>
   </energy>
  </scstep>
  <scstep>
   <time name="total">    1.19    0.72</time>
   <energy>
    <i name="e_fr_energy">     -0.48954917 </i>
    <i name="e_wo_entrp">     -0.48954917 </i>
    <i name="e_0_energy">     -0.48954917 </i>
   </energy>
  </scstep>
  <scstep>
   <time name="total">    1.20    0.72</time>
   <energy>
    <i name="e_fr_energy">     -0.48974036 </i>
    <i name="e_wo_entrp">     -0.48974036 </i>
    <i name="e_0_energy">     -0.48974036 </i>
   </energy>
  </scstep>
  <scstep>
   <time name="total">    1.21    0.73</time>
   <energy>
    <i name="e_fr_energy">     -0.48974929 </i>
    <i name="e_wo_entrp">     -0.48974929 </i>
    <i name="e_0_energy">     -0.48974929 </i>
   </energy>
  </scstep>
  <scstep>
   <time name="total">    1.20    0.73</time>
   <energy>
    <i name="e_fr_energy">     -0.48974960 </i>
    <i name="e_wo_entrp">     -0.48974960 </i>
    <i name="e_0_energy">     -0.48974960 </i>
   </energy>
  </scstep>
  <scstep>
   <time name="total">    1.18    0.70</time>
   <energy>
    <i name="e_fr_energy">     -0.48974962 </i>
    <i name="e_wo_entrp">     -0.48974962 </i>
    <i name="e_0_energy">     -0.48974962 </i>
   </energy>
  </scstep>
  <scstep>
   <time name="total">    1.14    0.67</time>
   <energy>
    <i name="e_fr_energy">     -0.48974962 </i>
    <i name="e_wo_entrp">     -0.48974962 </i>
    <i name="e_0_energy">     -0.48974962 </i>
   </energy>
  </scstep>
  <scstep>
   <time name="total">    1.12    0.65</time>
   <energy>
    <i name="e_fr_energy">     -0.48974962 </i>
    <i name="e_wo_entrp">     -0.48974962 </i>
    <i name="e_0_energy">     -0.48974962 </i>
   </energy>
  </scstep>
  <scstep>
   <time name="total">    1.13    0.65</time>
   <energy>
    <i name="e_fr_energy">     -0.48974962 </i>
    <i name="e_wo_entrp">     -0.48974962 </i>
    <i name="e_0_energy">     -0.48974962 </i>
   </energy>
  </scstep>
  <scstep>
   <time name="total">    1.12    0.64</time>
   <energy>
    <i name="e_fr_energy">     -0.48974962 </i>
    <i name="e_wo_entrp">     -0.48974962 </i>
    <i name="e_0_energy">     -0.48974962 </i>
   </energy>
  </scstep>
  <varray name="dielectric_ipa" >
   <v>       2.59001915       0.00000000       0.00000000 </v>
   <v>       0.00000000       2.59001915       0.00000000 </v>
   <v>       0.00000000      -0.00000000       2.60345339 </v>
  </varray>
  <kpoints>
   <generation param="Gamma">
    <v type="int" name="divisions">       4        4        4 </v>
    <v name="usershift">      0.00000000       0.00000000       0.00000000 </v>
    <v name="genvec1">      0.25000000       0.00000000       0.00000000 </v>
    <v name="genvec2">      0.00000000       0.25000000       0.00000000 </v>
    <v name="genvec3">      0.00000000       0.00000000       0.25000000 </v>
    <v name="shift">      0.00000000       0.00000000       0.00000000 </v>
   </generation>
   <varray name="kpointlist" >
    <v>       0.00000000       0.00000000       0.00000000 </v>
    <v>       0.25000000       0.00000000       0.00000000 </v>
    <v>       0.00000000       0.25000000       0.00000000 </v>
    <v>       0.50000000       0.00000000       0.00000000 </v>
    <v>       0.00000000       0.50000000       0.00000000 </v>
    <v>       0.25000000       0.25000000       0.00000000 </v>
    <v>       0.50000000       0.25000000       0.00000000 </v>
    <v>       0.00000000       0.00000000       0.25000000 </v>
    <v>       0.25000000       0.00000000       0.25000000 </v>
    <v>       0.00000000       0.25000000       0.25000000 </v>
    <v>      -0.25000000       0.00000000       0.25000000 </v>
    <v>       0.00000000      -0.25000000       0.25000000 </v>
    <v>       0.50000000       0.00000000       0.25000000 </v>
    <v>       0.00000000       0.50000000       0.25000000 </v>
    <v>       0.25000000       0.25000000       0.25000000 </v>
    <v>       0.50000000       0.25000000       0.25000000 </v>
    <v>      -0.25000000      -0.25000000       0.25000000 </v>
    <v>       0.00000000       0.00000000       0.50000000 </v>
    <v>       0.25000000       0.00000000       0.50000000 </v>
    <v>       0.00000000       0.25000000       0.50000000 </v>
    <v>       0.50000000       0.00000000       0.50000000 </v>
    <v>       0.00000000       0.50000000       0.50000000 </v>
    <v>       0.25000000       0.25000000       0.50000000 </v>
    <v>       0.50000000       0.25000000       0.50000000 </v>
   </varray>
   <varray name="weights" >
    <v>       0.01562500 </v>
    <v>       0.06250000 </v>
    <v>       0.03125000 </v>
    <v>       0.03125000 </v>
    <v>       0.01562500 </v>
    <v>       0.06250000 </v>
    <v>       0.03125000 </v>
    <v>       0.03125000 </v>
    <v>       0.06250000 </v>
    <v>       0.03125000 </v>
    <v>       0.06250000 </v>
    <v>       0.03125000 </v>
    <v>       0.06250000 </v>
    <v>       0.03125000 </v>
    <v>       0.06250000 </v>
    <v>       0.06250000 </v>
    <v>       0.06250000 </v>
    <v>       0.01562500 </v>
    <v>       0.06250000 </v>
    <v>       0.03125000 </v>
    <v>       0.03125000 </v>
    <v>       0.01562500 </v>
    <v>       0.06250000 </v>
    <v>       0.03125000 </v>
   </varray>
  </kpoints>
  <scstep>
   <time name="total">    1.72    1.25</time>
   <energy>
    <i name="e_fr_energy">     -0.48321269 </i>
    <i name="e_wo_entrp">     -0.48321269 </i>
    <i name="e_0_energy">     -0.48321269 </i>
   </energy>
  </scstep>
  <scstep>
   <time name="total">    1.78    1.30</time>
   <energy>
    <i name="e_fr_energy">     -0.48544966 </i>
    <i name="e_wo_entrp">     -0.48544966 </i>
    <i name="e_0_energy">     -0.48544966 </i>
   </energy>
  </scstep>
  <scstep>
   <time name="total">    2.20    1.36</time>
   <energy>
    <i name="e_fr_energy">     -0.46498806 </i>
    <i name="e_wo_entrp">     -0.46498806 </i>
    <i name="e_0_energy">     -0.46498806 </i>
   </energy>
  </scstep>
  <scstep>
   <time name="total">    1.80    1.31</time>
   <energy>
    <i name="e_fr_energy">     -0.47603554 </i>
    <i name="e_wo_entrp">     -0.47603554 </i>
    <i name="e_0_energy">     -0.47603554 </i>
   </energy>
  </scstep>
  <scstep>
   <time name="total">    1.78    1.29</time>
   <energy>
    <i name="e_fr_energy">     -0.49379728 </i>
    <i name="e_wo_entrp">     -0.49379728 </i>
    <i name="e_0_energy">     -0.49379728 </i>
   </energy>
  </scstep>
  <scstep>
   <time name="total">    1.77    1.28</time>
   <energy>
    <i name="e_fr_energy">     -0.49670538 </i>
    <i name="e_wo_entrp">     -0.49670538 </i>
    <i name="e_0_energy">     -0.49670538 </i>
   </energy>
  </scstep>
  <scstep>
   <time name="total">    1.80    1.31</time>
   <energy>
    <i name="e_fr_energy">     -0.49695498 </i>
    <i name="e_wo_entrp">     -0.49695498 </i>
    <i name="e_0_energy">     -0.49695498 </i>
   </energy>
  </scstep>
  <scstep>
   <time name="total">    1.80    1.31</time>
   <energy>
    <i name="e_fr_energy">     -0.49718826 </i>
    <i name="e_wo_entrp">     -0.49718826 </i>
    <i name="e_0_energy">     -0.49718826 </i>
   </energy>
  </scstep>
  <scstep>
   <time name="total">    1.79    1.30</time>
   <energy>
    <i name="e_fr_energy">     -0.49724787 </i>
    <i name="e_wo_entrp">     -0.49724787 </i>
    <i name="e_0_energy">     -0.49724787 </i>
   </energy>
  </scstep>
  <scstep>
   <time name="total">    1.81    1.32</time>
   <energy>
    <i name="e_fr_energy">     -0.49724450 </i>
    <i name="e_wo_entrp">     -0.49724450 </i>
    <i name="e_0_energy">     -0.49724450 </i>
   </energy>
  </scstep>
  <scstep>
   <time name="total">    1.80    1.31</time>
   <energy>
    <i name="e_fr_energy">     -0.49724517 </i>
    <i name="e_wo_entrp">     -0.49724517 </i>
    <i name="e_0_energy">     -0.49724517 </i>
   </energy>
  </scstep>
  <scstep>
   <time name="total">    1.76    1.27</time>
   <energy>
    <i name="e_fr_energy">     -0.49724508 </i>
    <i name="e_wo_entrp">     -0.49724508 </i>
    <i name="e_0_energy">     -0.49724508 </i>
   </energy>
  </scstep>
  <scstep>
   <time name="total">    1.76    1.27</time>
   <energy>
    <i name="e_fr_energy">     -0.49724508 </i>
    <i name="e_wo_entrp">     -0.49724508 </i>
    <i name="e_0_energy">     -0.49724508 </i>
   </energy>
  </scstep>
  <scstep>
   <time name="total">    1.77    1.28</time>
   <energy>
    <i name="e_fr_energy">     -0.49724493 </i>
    <i name="e_wo_entrp">     -0.49724493 </i>
    <i name="e_0_energy">     -0.49724493 </i>
   </energy>
  </scstep>
  <kpoints>
   <generation param="Gamma">
    <v type="int" name="divisions">       4        4        4 </v>
    <v name="usershift">      0.00000000       0.00000000       0.00000000 </v>
    <v name="genvec1">      0.25000000       0.00000000       0.00000000 </v>
    <v name="genvec2">      0.00000000       0.25000000       0.00000000 </v>
    <v name="genvec3">      0.00000000       0.00000000       0.25000000 </v>
    <v name="shift">      0.00000000       0.00000000       0.00000000 </v>
   </generation>
   <varray name="kpointlist" >
    <v>       0.00000000       0.00000000       0.00000000 </v>
    <v>       0.25000000       0.00000000       0.00000000 </v>
    <v>       0.00000000       0.25000000       0.00000000 </v>
    <v>      -0.25000000       0.25000000       0.00000000 </v>
    <v>       0.50000000       0.00000000       0.00000000 </v>
    <v>       0.00000000       0.50000000       0.00000000 </v>
    <v>       0.50000000       0.50000000       0.00000000 </v>
    <v>       0.25000000       0.25000000       0.00000000 </v>
    <v>      -0.25000000       0.50000000       0.00000000 </v>
    <v>       0.50000000       0.25000000       0.00000000 </v>
    <v>       0.00000000       0.00000000       0.25000000 </v>
    <v>       0.25000000       0.00000000       0.25000000 </v>
    <v>       0.00000000       0.25000000       0.25000000 </v>
    <v>      -0.25000000       0.25000000       0.25000000 </v>
    <v>      -0.25000000       0.00000000       0.25000000 </v>
    <v>       0.00000000      -0.25000000       0.25000000 </v>
    <v>       0.25000000      -0.25000000       0.25000000 </v>
    <v>       0.50000000       0.00000000       0.25000000 </v>
    <v>       0.00000000       0.50000000       0.25000000 </v>
    <v>       0.50000000       0.50000000       0.25000000 </v>
    <v>       0.25000000       0.25000000       0.25000000 </v>
    <v>      -0.25000000       0.50000000       0.25000000 </v>
    <v>       0.50000000       0.25000000       0.25000000 </v>
    <v>      -0.25000000      -0.25000000       0.25000000 </v>
    <v>       0.25000000       0.50000000       0.25000000 </v>
    <v>       0.50000000      -0.25000000       0.25000000 </v>
    <v>       0.00000000       0.00000000       0.50000000 </v>
    <v>       0.25000000       0.00000000       0.50000000 </v>
    <v>       0.00000000       0.25000000       0.50000000 </v>
    <v>      -0.25000000       0.25000000       0.50000000 </v>
    <v>       0.50000000       0.00000000       0.50000000 </v>
    <v>       0.00000000       0.50000000       0.50000000 </v>
    <v>       0.50000000       0.50000000       0.50000000 </v>
    <v>       0.25000000       0.25000000       0.50000000 </v>
    <v>      -0.25000000       0.50000000       0.50000000 </v>
    <v>       0.50000000       0.25000000       0.50000000 </v>
   </varray>
   <varray name="weights" >
    <v>       0.01562500 </v>
    <v>       0.03125000 </v>
    <v>       0.03125000 </v>
    <v>       0.03125000 </v>
    <v>       0.01562500 </v>
    <v>       0.01562500 </v>
    <v>       0.01562500 </v>
    <v>       0.03125000 </v>
    <v>       0.03125000 </v>
    <v>       0.03125000 </v>
    <v>       0.03125000 </v>
    <v>       0.03125000 </v>
    <v>       0.03125000 </v>
    <v>       0.03125000 </v>
    <v>       0.03125000 </v>
    <v>       0.03125000 </v>
    <v>       0.03125000 </v>
    <v>       0.03125000 </v>
    <v>       0.03125000 </v>
    <v>       0.03125000 </v>
    <v>       0.03125000 </v>
    <v>       0.03125000 </v>
    <v>       0.03125000 </v>
    <v>       0.03125000 </v>
    <v>       0.03125000 </v>
    <v>       0.03125000 </v>
    <v>       0.01562500 </v>
    <v>       0.03125000 </v>
    <v>       0.03125000 </v>
    <v>       0.03125000 </v>
    <v>       0.01562500 </v>
    <v>       0.01562500 </v>
    <v>       0.01562500 </v>
    <v>       0.03125000 </v>
    <v>       0.03125000 </v>
    <v>       0.03125000 </v>
   </varray>
  </kpoints>
  <scstep>
   <time name="total">    2.28    1.81</time>
   <energy>
    <i name="e_fr_energy">     -0.48325457 </i>
    <i name="e_wo_entrp">     -0.48325457 </i>
    <i name="e_0_energy">     -0.48325457 </i>
   </energy>
  </scstep>
  <scstep>
   <time name="total">    2.36    1.88</time>
   <energy>
    <i name="e_fr_energy">     -0.48544790 </i>
    <i name="e_wo_entrp">     -0.48544790 </i>
    <i name="e_0_energy">     -0.48544790 </i>
   </energy>
  </scstep>
  <scstep>
   <time name="total">    2.37    1.88</time>
   <energy>
    <i name="e_fr_energy">     -0.46522190 </i>
    <i name="e_wo_entrp">     -0.46522190 </i>
    <i name="e_0_energy">     -0.46522190 </i>
   </energy>
  </scstep>
  <scstep>
   <time name="total">    2.37    1.88</time>
   <energy>
    <i name="e_fr_energy">     -0.47605781 </i>
    <i name="e_wo_entrp">     -0.47605781 </i>
    <i name="e_0_energy">     -0.47605781 </i>
   </energy>
  </scstep>
  <scstep>
   <time name="total">    2.36    1.87</time>
   <energy>
    <i name="e_fr_energy">     -0.49380375 </i>
    <i name="e_wo_entrp">     -0.49380375 </i>
    <i name="e_0_energy">     -0.49380375 </i>
   </energy>
  </scstep>
  <scstep>
   <time name="total">    2.34    1.85</time>
   <energy>
    <i name="e_fr_energy">     -0.49672068 </i>
    <i name="e_wo_entrp">     -0.49672068 </i>
    <i name="e_0_energy">     -0.49672068 </i>
   </energy>
  </scstep>
  <scstep>
   <time name="total">    2.41    1.90</time>
   <energy>
    <i name="e_fr_energy">     -0.49696461 </i>
    <i name="e_wo_entrp">     -0.49696461 </i>
    <i name="e_0_energy">     -0.49696461 </i>
   </energy>
  </scstep>
  <scstep>
   <time name="total">    2.40    1.90</time>
   <energy>
    <i name="e_fr_energy">     -0.49719534 </i>
    <i name="e_wo_entrp">     -0.49719534 </i>
    <i name="e_0_energy">     -0.49719534 </i>
   </energy>
  </scstep>
  <scstep>
   <time name="total">    2.40    1.91</time>
   <energy>
    <i name="e_fr_energy">     -0.49726085 </i>
    <i name="e_wo_entrp">     -0.49726085 </i>
    <i name="e_0_energy">     -0.49726085 </i>
   </energy>
  </scstep>
  <scstep>
   <time name="total">    2.40    1.91</time>
   <energy>
    <i name="e_fr_energy">     -0.49725566 </i>
    <i name="e_wo_entrp">     -0.49725566 </i>
    <i name="e_0_energy">     -0.49725566 </i>
   </energy>
  </scstep>
  <scstep>
   <time name="total">    2.40    1.91</time>
   <energy>
    <i name="e_fr_energy">     -0.49725673 </i>
    <i name="e_wo_entrp">     -0.49725673 </i>
    <i name="e_0_energy">     -0.49725673 </i>
   </energy>
  </scstep>
  <scstep>
   <time name="total">    2.34    1.85</time>
   <energy>
    <i name="e_fr_energy">     -0.49725683 </i>
    <i name="e_wo_entrp">     -0.49725683 </i>
    <i name="e_0_energy">     -0.49725683 </i>
   </energy>
  </scstep>
  <scstep>
   <time name="total">    2.34    1.85</time>
   <energy>
    <i name="e_fr_energy">     -0.49725690 </i>
    <i name="e_wo_entrp">     -0.49725690 </i>
    <i name="e_0_energy">     -0.49725690 </i>
   </energy>
  </scstep>
  <scstep>
   <time name="total">    2.36    1.86</time>
   <energy>
    <i name="e_fr_energy">     -0.49725678 </i>
    <i name="e_wo_entrp">     -0.49725678 </i>
    <i name="e_0_energy">     -0.49725678 </i>
   </energy>
  </scstep>
  <kpoints>
   <generation param="Gamma">
    <v type="int" name="divisions">       4        4        4 </v>
    <v name="usershift">      0.00000000       0.00000000       0.00000000 </v>
    <v name="genvec1">      0.25000000       0.00000000       0.00000000 </v>
    <v name="genvec2">      0.00000000       0.25000000       0.00000000 </v>
    <v name="genvec3">      0.00000000       0.00000000       0.25000000 </v>
    <v name="shift">      0.00000000       0.00000000       0.00000000 </v>
   </generation>
   <varray name="kpointlist" >
    <v>       0.00000000       0.00000000       0.00000000 </v>
    <v>       0.25000000       0.00000000       0.00000000 </v>
    <v>       0.50000000       0.00000000       0.00000000 </v>
    <v>       0.25000000       0.25000000       0.00000000 </v>
    <v>       0.00000000       0.00000000       0.25000000 </v>
    <v>       0.25000000       0.00000000       0.25000000 </v>
    <v>       0.00000000       0.25000000       0.25000000 </v>
    <v>       0.50000000       0.00000000       0.25000000 </v>
    <v>       0.25000000       0.25000000       0.25000000 </v>
    <v>      -0.25000000       0.50000000       0.25000000 </v>
    <v>       0.00000000       0.00000000       0.50000000 </v>
    <v>       0.25000000       0.00000000       0.50000000 </v>
    <v>       0.50000000       0.00000000       0.50000000 </v>
    <v>       0.25000000       0.25000000       0.50000000 </v>
   </varray>
   <varray name="weights" >
    <v>       0.01562500 </v>
    <v>       0.09375000 </v>
    <v>       0.04687500 </v>
    <v>       0.09375000 </v>
    <v>       0.03125000 </v>
    <v>       0.09375000 </v>
    <v>       0.09375000 </v>
    <v>       0.09375000 </v>
    <v>       0.09375000 </v>
    <v>       0.09375000 </v>
    <v>       0.01562500 </v>
    <v>       0.09375000 </v>
    <v>       0.04687500 </v>
    <v>       0.09375000 </v>
   </varray>
  </kpoints>
  <scstep>
   <time name="total">    1.58    0.83</time>
   <energy>
    <i name="e_fr_energy">     -0.48750808 </i>
    <i name="e_wo_entrp">     -0.48750808 </i>
    <i name="e_0_energy">     -0.48750808 </i>
   </energy>
  </scstep>
  <scstep>
   <time name="total">    1.39    0.82</time>
   <energy>
    <i name="e_fr_energy">     -0.48954916 </i>
    <i name="e_wo_entrp">     -0.48954916 </i>
    <i name="e_0_energy">     -0.48954916 </i>
   </energy>
  </scstep>
  <scstep>
   <time name="total">    1.30    0.81</time>
   <energy>
    <i name="e_fr_energy">     -0.47438751 </i>
    <i name="e_wo_entrp">     -0.47438751 </i>
    <i name="e_0_energy">     -0.47438751 </i>
   </energy>
  </scstep>
  <scstep>
   <time name="total">    1.31    0.81</time>
   <energy>
    <i name="e_fr_energy">     -0.48764924 </i>
    <i name="e_wo_entrp">     -0.48764924 </i>
    <i name="e_0_energy">     -0.48764924 </i>
   </energy>
  </scstep>
  <scstep>
   <time name="total">    1.30    0.81</time>
   <energy>
    <i name="e_fr_energy">     -0.50383758 </i>
    <i name="e_wo_entrp">     -0.50383758 </i>
    <i name="e_0_energy">     -0.50383758 </i>
   </energy>
  </scstep>
  <scstep>
   <time name="total">    1.29    0.79</time>
   <energy>
    <i name="e_fr_energy">     -0.50667573 </i>
    <i name="e_wo_entrp">     -0.50667573 </i>
    <i name="e_0_energy">     -0.50667573 </i>
   </energy>
  </scstep>
  <scstep>
   <time name="total">    1.31    0.82</time>
   <energy>
    <i name="e_fr_energy">     -0.50691930 </i>
    <i name="e_wo_entrp">     -0.50691930 </i>
    <i name="e_0_energy">     -0.50691930 </i>
   </energy>
  </scstep>
  <scstep>
   <time name="total">    1.31    0.81</time>
   <energy>
    <i name="e_fr_energy">     -0.50718441 </i>
    <i name="e_wo_entrp">     -0.50718441 </i>
    <i name="e_0_energy">     -0.50718441 </i>
   </energy>
  </scstep>
  <scstep>
   <time name="total">    1.32    0.86</time>
   <energy>
    <i name="e_fr_energy">     -0.50720750 </i>
    <i name="e_wo_entrp">     -0.50720750 </i>
    <i name="e_0_energy">     -0.50720750 </i>
   </energy>
  </scstep>
  <scstep>
   <time name="total">    1.32    0.82</time>
   <energy>
    <i name="e_fr_energy">     -0.50720870 </i>
    <i name="e_wo_entrp">     -0.50720870 </i>
    <i name="e_0_energy">     -0.50720870 </i>
   </energy>
  </scstep>
  <scstep>
   <time name="total">    1.32    0.82</time>
   <energy>
    <i name="e_fr_energy">     -0.50720765 </i>
    <i name="e_wo_entrp">     -0.50720765 </i>
    <i name="e_0_energy">     -0.50720765 </i>
   </energy>
  </scstep>
  <scstep>
   <time name="total">    1.27    0.78</time>
   <energy>
    <i name="e_fr_energy">     -0.50720781 </i>
    <i name="e_wo_entrp">     -0.50720781 </i>
    <i name="e_0_energy">     -0.50720781 </i>
   </energy>
  </scstep>
  <scstep>
   <time name="total">    1.30    0.80</time>
   <energy>
    <i name="e_fr_energy">     -0.50720768 </i>
    <i name="e_wo_entrp">     -0.50720768 </i>
    <i name="e_0_energy">     -0.50720768 </i>
   </energy>
  </scstep>
  <scstep>
   <time name="total">    1.27    0.78</time>
   <energy>
    <i name="e_fr_energy">     -0.50720771 </i>
    <i name="e_wo_entrp">     -0.50720771 </i>
    <i name="e_0_energy">     -0.50720771 </i>
   </energy>
  </scstep>
  <kpoints>
   <generation param="Gamma">
    <v type="int" name="divisions">       4        4        4 </v>
    <v name="usershift">      0.00000000       0.00000000       0.00000000 </v>
    <v name="genvec1">      0.25000000       0.00000000       0.00000000 </v>
    <v name="genvec2">      0.00000000       0.25000000       0.00000000 </v>
    <v name="genvec3">      0.00000000       0.00000000       0.25000000 </v>
    <v name="shift">      0.00000000       0.00000000       0.00000000 </v>
   </generation>
   <varray name="kpointlist" >
    <v>       0.00000000       0.00000000       0.00000000 </v>
    <v>       0.25000000       0.00000000       0.00000000 </v>
    <v>       0.50000000       0.00000000       0.00000000 </v>
    <v>       0.25000000       0.25000000       0.00000000 </v>
    <v>       0.00000000       0.00000000       0.25000000 </v>
    <v>       0.25000000       0.00000000       0.25000000 </v>
    <v>       0.00000000       0.25000000       0.25000000 </v>
    <v>       0.50000000       0.00000000       0.25000000 </v>
    <v>       0.25000000       0.25000000       0.25000000 </v>
    <v>       0.00000000       0.00000000       0.50000000 </v>
    <v>       0.25000000       0.00000000       0.50000000 </v>
    <v>       0.50000000       0.00000000       0.50000000 </v>
    <v>       0.25000000       0.25000000       0.50000000 </v>
   </varray>
   <varray name="weights" >
    <v>       0.01562500 </v>
    <v>       0.09375000 </v>
    <v>       0.04687500 </v>
    <v>       0.09375000 </v>
    <v>       0.03125000 </v>
    <v>       0.09375000 </v>
    <v>       0.09375000 </v>
    <v>       0.09375000 </v>
    <v>       0.18750000 </v>
    <v>       0.01562500 </v>
    <v>       0.09375000 </v>
    <v>       0.04687500 </v>
    <v>       0.09375000 </v>
   </varray>
  </kpoints>
  <varray name="dielectric_dft" >
   <v>       2.48102293       0.00000000       0.00000000 </v>
   <v>       0.00000000       2.48102293       0.00000000 </v>
   <v>      -0.00000000      -0.00000000       2.51318114 </v>
  </varray>
  <varray name="epsilon" >
   <v>       2.48102293       0.00000000       0.00000000 </v>
   <v>       0.00000000       2.48102293       0.00000000 </v>
   <v>      -0.00000000      -0.00000000       2.51318114 </v>
  </varray>
  <kpoints>
   <generation param="Gamma">
    <v type="int" name="divisions">       4        4        4 </v>
    <v name="usershift">      0.00000000       0.00000000       0.00000000 </v>
    <v name="genvec1">      0.25000000       0.00000000       0.00000000 </v>
    <v name="genvec2">      0.00000000       0.25000000       0.00000000 </v>
    <v name="genvec3">      0.00000000       0.00000000       0.25000000 </v>
    <v name="shift">      0.00000000       0.00000000       0.00000000 </v>
   </generation>
   <varray name="kpointlist" >
    <v>       0.00000000       0.00000000       0.00000000 </v>
    <v>       0.25000000       0.00000000       0.00000000 </v>
    <v>       0.50000000       0.00000000       0.00000000 </v>
    <v>       0.25000000       0.25000000       0.00000000 </v>
    <v>       0.00000000       0.00000000       0.25000000 </v>
    <v>       0.25000000       0.00000000       0.25000000 </v>
    <v>       0.00000000       0.25000000       0.25000000 </v>
    <v>       0.50000000       0.00000000       0.25000000 </v>
    <v>       0.25000000       0.25000000       0.25000000 </v>
    <v>       0.00000000       0.00000000       0.50000000 </v>
    <v>       0.25000000       0.00000000       0.50000000 </v>
    <v>       0.50000000       0.00000000       0.50000000 </v>
    <v>       0.25000000       0.25000000       0.50000000 </v>
   </varray>
   <varray name="weights" >
    <v>       0.01562500 </v>
    <v>       0.09375000 </v>
    <v>       0.04687500 </v>
    <v>       0.09375000 </v>
    <v>       0.03125000 </v>
    <v>       0.09375000 </v>
    <v>       0.09375000 </v>
    <v>       0.09375000 </v>
    <v>       0.18750000 </v>
    <v>       0.01562500 </v>
    <v>       0.09375000 </v>
    <v>       0.04687500 </v>
    <v>       0.09375000 </v>
   </varray>
  </kpoints>
  <array name="born_charges" >
   <dimension dim="1">ion</dimension>
   <set>
    <v>       2.98145958       0.00000000      -0.00000000 </v>
    <v>       0.00000000       3.62000560      -0.32068576 </v>
    <v>       0.00000000       0.27762790       3.42542254 </v>
   </set>
   <set>
    <v>       3.46036910       0.27649854       0.27772202 </v>
    <v>       0.27649854       3.14109609       0.16034288 </v>
    <v>      -0.24043281      -0.13881395       3.42542254 </v>
   </set>
   <set>
    <v>       3.46036910      -0.27649854      -0.27772202 </v>
    <v>      -0.27649854       3.14109609       0.16034288 </v>
    <v>       0.24043281      -0.13881395       3.42542254 </v>
   </set>
   <set>
    <v>      -1.31084543      -0.49326083      -0.31024201 </v>
    <v>      -0.43556135      -1.98988717      -0.67911643 </v>
    <v>      -0.24285909      -0.72180980      -1.71271127 </v>
   </set>
   <set>
    <v>      -2.22231853      -0.09067790       0.74325309 </v>
    <v>      -0.03297841      -1.07841406       0.07088075 </v>
    <v>       0.74653517       0.15058276      -1.71271127 </v>
   </set>
   <set>
    <v>      -1.41793493       0.49738950      -0.43301107 </v>
    <v>       0.55508898      -1.88279766       0.60823568 </v>
    <v>      -0.50367608       0.57122704      -1.71271127 </v>
   </set>
   <set>
    <v>      -1.31084543       0.49326083       0.31024201 </v>
    <v>       0.43556135      -1.98988717      -0.67911643 </v>
    <v>       0.24285909      -0.72180980      -1.71271127 </v>
   </set>
   <set>
    <v>      -2.22231853       0.09067790      -0.74325309 </v>
    <v>       0.03297841      -1.07841406       0.07088075 </v>
    <v>      -0.74653517       0.15058276      -1.71271127 </v>
   </set>
   <set>
    <v>      -1.41793493      -0.49738950       0.43301107 </v>
    <v>      -0.55508898      -1.88279766       0.60823568 </v>
    <v>       0.50367608       0.57122704      -1.71271127 </v>
   </set>
  </array>
  <time name="totalsc">  214.77  123.70</time>
  <eigenvalues>
   <array>
    <dimension dim="1">band</dimension>
    <dimension dim="2">kpoint</dimension>
    <dimension dim="3">spin</dimension>
    <field>eigene</field>
    <field>occ</field>
    <set>
     <set comment="spin 1">
      <set comment="kpoint 1">
       <r>  -18.1717    1.0000 </r>
       <r>  -16.6200    1.0000 </r>
       <r>  -16.6200    1.0000 </r>
       <r>  -15.9506    1.0000 </r>
       <r>  -15.9427    1.0000 </r>
       <r>  -15.9427    1.0000 </r>
       <r>   -6.8792    1.0000 </r>
       <r>   -6.8792    1.0000 </r>
       <r>   -4.1459    1.0000 </r>
       <r>   -4.0665    1.0000 </r>
       <r>   -3.9101    1.0000 </r>
       <r>   -3.9101    1.0000 </r>
       <r>   -1.6844    1.0000 </r>
       <r>   -1.6844    1.0000 </r>
       <r>   -1.3757    1.0000 </r>
       <r>   -1.1523    1.0000 </r>
       <r>   -0.1559    1.0000 </r>
       <r>   -0.1559    1.0000 </r>
       <r>   -0.0970    1.0000 </r>
       <r>    0.2603    1.0000 </r>
       <r>    0.2603    1.0000 </r>
       <r>    0.4605    1.0000 </r>
       <r>    1.0045    1.0000 </r>
       <r>    1.0045    1.0000 </r>
       <r>    7.3234    0.0000 </r>
       <r>   10.6113    0.0000 </r>
       <r>   10.6113    0.0000 </r>
       <r>   11.2334    0.0000 </r>
       <r>   11.2334    0.0000 </r>
      </set>
      <set comment="kpoint 2">
       <r>  -17.9877    1.0000 </r>
       <r>  -16.8196    1.0000 </r>
       <r>  -16.5938    1.0000 </r>
       <r>  -16.0184    1.0000 </r>
       <r>  -15.9759    1.0000 </r>
       <r>  -15.9420    1.0000 </r>
       <r>   -6.9574    1.0000 </r>
       <r>   -6.5094    1.0000 </r>
       <r>   -4.2166    1.0000 </r>
       <r>   -4.1541    1.0000 </r>
       <r>   -4.0345    1.0000 </r>
       <r>   -3.6177    1.0000 </r>
       <r>   -1.8729    1.0000 </r>
       <r>   -1.5561    1.0000 </r>
       <r>   -1.3480    1.0000 </r>
       <r>   -0.8971    1.0000 </r>
       <r>   -0.6976    1.0000 </r>
       <r>   -0.2392    1.0000 </r>
       <r>   -0.1594    1.0000 </r>
       <r>    0.1790    1.0000 </r>
       <r>    0.2770    1.0000 </r>
       <r>    0.4208    1.0000 </r>
       <r>    1.0540    1.0000 </r>
       <r>    1.1419    1.0000 </r>
       <r>    8.2331    0.0000 </r>
       <r>   10.6713    0.0000 </r>
       <r>   10.7206    0.0000 </r>
       <r>   11.2061    0.0000 </r>
       <r>   11.4815    0.0000 </r>
      </set>
      <set comment="kpoint 3">
       <r>  -17.6647    1.0000 </r>
       <r>  -17.1819    1.0000 </r>
       <r>  -16.5651    1.0000 </r>
       <r>  -16.0448    1.0000 </r>
       <r>  -16.0006    1.0000 </r>
       <r>  -15.9679    1.0000 </r>
       <r>   -7.0313    1.0000 </r>
       <r>   -6.0440    1.0000 </r>
       <r>   -4.5550    1.0000 </r>
       <r>   -4.0963    1.0000 </r>
       <r>   -4.0907    1.0000 </r>
       <r>   -3.2807    1.0000 </r>
       <r>   -1.8246    1.0000 </r>
       <r>   -1.6233    1.0000 </r>
       <r>   -1.4348    1.0000 </r>
       <r>   -1.0001    1.0000 </r>
       <r>   -0.7920    1.0000 </r>
       <r>   -0.4792    1.0000 </r>
       <r>   -0.2874    1.0000 </r>
       <r>    0.1950    1.0000 </r>
       <r>    0.2810    1.0000 </r>
       <r>    0.5602    1.0000 </r>
       <r>    1.0148    1.0000 </r>
       <r>    1.2415    1.0000 </r>
       <r>    9.6350    0.0000 </r>
       <r>   10.3720    0.0000 </r>
       <r>   10.9658    0.0000 </r>
       <r>   10.9913    0.0000 </r>
       <r>   11.9957    0.0000 </r>
      </set>
      <set comment="kpoint 4">
       <r>  -17.6752    1.0000 </r>
       <r>  -17.1513    1.0000 </r>
       <r>  -16.5961    1.0000 </r>
       <r>  -16.0401    1.0000 </r>
       <r>  -15.9984    1.0000 </r>
       <r>  -15.9645    1.0000 </r>
       <r>   -7.0597    1.0000 </r>
       <r>   -5.9057    1.0000 </r>
       <r>   -4.8488    1.0000 </r>
       <r>   -4.0744    1.0000 </r>
       <r>   -3.9339    1.0000 </r>
       <r>   -3.2881    1.0000 </r>
       <r>   -1.7843    1.0000 </r>
       <r>   -1.6275    1.0000 </r>
       <r>   -1.4654    1.0000 </r>
       <r>   -0.8970    1.0000 </r>
       <r>   -0.8473    1.0000 </r>
       <r>   -0.4278    1.0000 </r>
       <r>   -0.2435    1.0000 </r>
       <r>   -0.0085    1.0000 </r>
       <r>    0.2520    1.0000 </r>
       <r>    0.6680    1.0000 </r>
       <r>    0.9808    1.0000 </r>
       <r>    1.2629    1.0000 </r>
       <r>    9.4764    0.0000 </r>
       <r>   10.7360    0.0000 </r>
       <r>   10.7716    0.0000 </r>
       <r>   11.4422    0.0000 </r>
       <r>   11.5804    0.0000 </r>
      </set>
      <set comment="kpoint 5">
       <r>  -18.0465    1.0000 </r>
       <r>  -17.1799    1.0000 </r>
       <r>  -16.1695    1.0000 </r>
       <r>  -15.9555    1.0000 </r>
       <r>  -15.9527    1.0000 </r>
       <r>  -15.9233    1.0000 </r>
       <r>   -7.6525    1.0000 </r>
       <r>   -5.8675    1.0000 </r>
       <r>   -4.3679    1.0000 </r>
       <r>   -4.1813    1.0000 </r>
       <r>   -4.1319    1.0000 </r>
       <r>   -3.5509    1.0000 </r>
       <r>   -1.7655    1.0000 </r>
       <r>   -1.4394    1.0000 </r>
       <r>   -1.3105    1.0000 </r>
       <r>   -0.9487    1.0000 </r>
       <r>   -0.4224    1.0000 </r>
       <r>   -0.2945    1.0000 </r>
       <r>   -0.1651    1.0000 </r>
       <r>   -0.1616    1.0000 </r>
       <r>    0.1773    1.0000 </r>
       <r>    0.6316    1.0000 </r>
       <r>    1.0936    1.0000 </r>
       <r>    1.1792    1.0000 </r>
       <r>    7.9358    0.0000 </r>
       <r>   10.4155    0.0000 </r>
       <r>   10.6338    0.0000 </r>
       <r>   10.6494    0.0000 </r>
       <r>   11.6435    0.0000 </r>
      </set>
      <set comment="kpoint 6">
       <r>  -17.8793    1.0000 </r>
       <r>  -17.1560    1.0000 </r>
       <r>  -16.3548    1.0000 </r>
       <r>  -16.0139    1.0000 </r>
       <r>  -15.9921    1.0000 </r>
       <r>  -15.9408    1.0000 </r>
       <r>   -7.3283    1.0000 </r>
       <r>   -5.9252    1.0000 </r>
       <r>   -4.6327    1.0000 </r>
       <r>   -4.0972    1.0000 </r>
       <r>   -3.8304    1.0000 </r>
       <r>   -3.6530    1.0000 </r>
       <r>   -1.9384    1.0000 </r>
       <r>   -1.4342    1.0000 </r>
       <r>   -1.3047    1.0000 </r>
       <r>   -0.9662    1.0000 </r>
       <r>   -0.6431    1.0000 </r>
       <r>   -0.3026    1.0000 </r>
       <r>   -0.1676    1.0000 </r>
       <r>    0.0581    1.0000 </r>
       <r>    0.3182    1.0000 </r>
       <r>    0.4887    1.0000 </r>
       <r>    1.0120    1.0000 </r>
       <r>    1.1514    1.0000 </r>
       <r>    8.7072    0.0000 </r>
       <r>   10.4552    0.0000 </r>
       <r>   10.7301    0.0000 </r>
       <r>   10.9680    0.0000 </r>
       <r>   11.6971    0.0000 </r>
      </set>
      <set comment="kpoint 7">
       <r>  -17.8820    1.0000 </r>
       <r>  -17.1426    1.0000 </r>
       <r>  -16.3860    1.0000 </r>
       <r>  -16.0148    1.0000 </r>
       <r>  -15.9599    1.0000 </r>
       <r>  -15.9511    1.0000 </r>
       <r>   -7.3304    1.0000 </r>
       <r>   -5.9302    1.0000 </r>
       <r>   -4.6334    1.0000 </r>
       <r>   -4.1201    1.0000 </r>
       <r>   -3.8566    1.0000 </r>
       <r>   -3.5690    1.0000 </r>
       <r>   -1.8925    1.0000 </r>
       <r>   -1.3895    1.0000 </r>
       <r>   -1.3606    1.0000 </r>
       <r>   -1.1102    1.0000 </r>
       <r>   -0.6938    1.0000 </r>
       <r>   -0.2015    1.0000 </r>
       <r>   -0.1043    1.0000 </r>
       <r>    0.0408    1.0000 </r>
       <r>    0.3871    1.0000 </r>
       <r>    0.4109    1.0000 </r>
       <r>    0.9066    1.0000 </r>
       <r>    1.2525    1.0000 </r>
       <r>    8.6701    0.0000 </r>
       <r>   10.5774    0.0000 </r>
       <r>   10.8881    0.0000 </r>
       <r>   11.0252    0.0000 </r>
       <r>   11.5530    0.0000 </r>
      </set>
      <set comment="kpoint 8">
       <r>  -17.6280    1.0000 </r>
       <r>  -17.1622    1.0000 </r>
       <r>  -16.6336    1.0000 </r>
       <r>  -16.0515    1.0000 </r>
       <r>  -16.0073    1.0000 </r>
       <r>  -15.9590    1.0000 </r>
       <r>   -6.9568    1.0000 </r>
       <r>   -5.9807    1.0000 </r>
       <r>   -4.8536    1.0000 </r>
       <r>   -4.0809    1.0000 </r>
       <r>   -3.7930    1.0000 </r>
       <r>   -3.4619    1.0000 </r>
       <r>   -1.8851    1.0000 </r>
       <r>   -1.7941    1.0000 </r>
       <r>   -1.2429    1.0000 </r>
       <r>   -1.0494    1.0000 </r>
       <r>   -0.5799    1.0000 </r>
       <r>   -0.4806    1.0000 </r>
       <r>   -0.1349    1.0000 </r>
       <r>    0.1303    1.0000 </r>
       <r>    0.3589    1.0000 </r>
       <r>    0.5976    1.0000 </r>
       <r>    0.8240    1.0000 </r>
       <r>    1.1742    1.0000 </r>
       <r>    9.9097    0.0000 </r>
       <r>   10.4318    0.0000 </r>
       <r>   10.8829    0.0000 </r>
       <r>   11.3081    0.0000 </r>
       <r>   11.8017    0.0000 </r>
      </set>
      <set comment="kpoint 9">
       <r>  -17.6299    1.0000 </r>
       <r>  -17.1628    1.0000 </r>
       <r>  -16.6253    1.0000 </r>
       <r>  -16.0423    1.0000 </r>
       <r>  -16.0185    1.0000 </r>
       <r>  -15.9643    1.0000 </r>
       <r>   -6.9651    1.0000 </r>
       <r>   -5.8798    1.0000 </r>
       <r>   -5.0217    1.0000 </r>
       <r>   -4.0449    1.0000 </r>
       <r>   -3.7652    1.0000 </r>
       <r>   -3.4757    1.0000 </r>
       <r>   -1.9203    1.0000 </r>
       <r>   -1.6280    1.0000 </r>
       <r>   -1.4082    1.0000 </r>
       <r>   -0.9252    1.0000 </r>
       <r>   -0.6622    1.0000 </r>
       <r>   -0.4516    1.0000 </r>
       <r>   -0.0613    1.0000 </r>
       <r>    0.0813    1.0000 </r>
       <r>    0.3173    1.0000 </r>
       <r>    0.6051    1.0000 </r>
       <r>    0.8650    1.0000 </r>
       <r>    1.1290    1.0000 </r>
       <r>    9.7422    0.0000 </r>
       <r>   10.6634    0.0000 </r>
       <r>   10.9913    0.0000 </r>
       <r>   11.3754    0.0000 </r>
       <r>   11.5215    0.0000 </r>
      </set>
      <set comment="kpoint 10">
       <r>  -17.6936    1.0000 </r>
       <r>  -17.6936    1.0000 </r>
       <r>  -15.9936    1.0000 </r>
       <r>  -15.9570    1.0000 </r>
       <r>  -15.9570    1.0000 </r>
       <r>  -15.9142    1.0000 </r>
       <r>   -7.9430    1.0000 </r>
       <r>   -4.9395    1.0000 </r>
       <r>   -4.9395    1.0000 </r>
       <r>   -4.2607    1.0000 </r>
[...]
       <r>    1.2151    1.0000 </r>
       <r>    9.3079    0.0000 </r>
       <r>    9.3079    0.0000 </r>
       <r>   10.4382    0.0000 </r>
       <r>   10.9956    0.0000 </r>
       <r>   10.9956    0.0000 </r>
      </set>
      <set comment="kpoint 11">
       <r>  -17.6423    1.0000 </r>
       <r>  -17.5016    1.0000 </r>
       <r>  -16.2491    1.0000 </r>
       <r>  -16.0268    1.0000 </r>
       <r>  -15.9734    1.0000 </r>
       <r>  -15.9432    1.0000 </r>
       <r>   -7.5171    1.0000 </r>
       <r>   -5.3545    1.0000 </r>
       <r>   -5.0133    1.0000 </r>
       <r>   -4.0965    1.0000 </r>
       <r>   -3.9728    1.0000 </r>
       <r>   -3.4556    1.0000 </r>
       <r>   -1.7484    1.0000 </r>
       <r>   -1.7305    1.0000 </r>
       <r>   -1.2091    1.0000 </r>
       <r>   -0.9374    1.0000 </r>
       <r>   -0.7534    1.0000 </r>
       <r>   -0.2545    1.0000 </r>
       <r>   -0.1576    1.0000 </r>
       <r>    0.0429    1.0000 </r>
       <r>    0.1864    1.0000 </r>
       <r>    0.7969    1.0000 </r>
       <r>    0.8310    1.0000 </r>
       <r>    1.1411    1.0000 </r>
       <r>    9.6758    0.0000 </r>
       <r>    9.8379    0.0000 </r>
       <r>   10.7277    0.0000 </r>
       <r>   11.0284    0.0000 </r>
       <r>   11.3855    0.0000 </r>
      </set>
      <set comment="kpoint 12">
       <r>  -17.5871    1.0000 </r>
       <r>  -17.1413    1.0000 </r>
       <r>  -16.7044    1.0000 </r>
       <r>  -16.0731    1.0000 </r>
       <r>  -15.9934    1.0000 </r>
       <r>  -15.9593    1.0000 </r>
       <r>   -6.8759    1.0000 </r>
       <r>   -5.9146    1.0000 </r>
       <r>   -5.0490    1.0000 </r>
       <r>   -3.9965    1.0000 </r>
       <r>   -3.7052    1.0000 </r>
       <r>   -3.6146    1.0000 </r>
       <r>   -1.9300    1.0000 </r>
       <r>   -1.9235    1.0000 </r>
       <r>   -1.1456    1.0000 </r>
       <r>   -0.8282    1.0000 </r>
       <r>   -0.7463    1.0000 </r>
       <r>   -0.2739    1.0000 </r>
       <r>    0.0226    1.0000 </r>
       <r>    0.1889    1.0000 </r>
       <r>    0.3978    1.0000 </r>
       <r>    0.4043    1.0000 </r>
       <r>    0.6988    1.0000 </r>
       <r>    1.1197    1.0000 </r>
       <r>   10.2254    0.0000 </r>
       <r>   10.7263    0.0000 </r>
       <r>   11.0164    0.0000 </r>
       <r>   11.2013    0.0000 </r>
       <r>   11.5377    0.0000 </r>
      </set>
      <set comment="kpoint 13">
       <r>  -17.5752    1.0000 </r>
       <r>  -17.1857    1.0000 </r>
       <r>  -16.6519    1.0000 </r>
       <r>  -16.0609    1.0000 </r>
       <r>  -15.9935    1.0000 </r>
       <r>  -15.9928    1.0000 </r>
       <r>   -6.8566    1.0000 </r>
       <r>   -5.8701    1.0000 </r>
       <r>   -5.1575    1.0000 </r>
       <r>   -3.8976    1.0000 </r>
       <r>   -3.7950    1.0000 </r>
       <r>   -3.6151    1.0000 </r>
       <r>   -1.9733    1.0000 </r>
       <r>   -1.7468    1.0000 </r>
       <r>   -1.2654    1.0000 </r>
       <r>   -0.9004    1.0000 </r>
       <r>   -0.6224    1.0000 </r>
       <r>   -0.4220    1.0000 </r>
       <r>    0.1497    1.0000 </r>
       <r>    0.2553    1.0000 </r>
       <r>    0.3284    1.0000 </r>
       <r>    0.5710    1.0000 </r>
       <r>    0.7171    1.0000 </r>
       <r>    0.9244    1.0000 </r>
       <r>   10.1765    0.0000 </r>
       <r>   10.6503    0.0000 </r>
       <r>   10.9660    0.0000 </r>
       <r>   11.3030    0.0000 </r>
       <r>   11.7258    0.0000 </r>
      </set>
     </set>
    </set>
   </array>
  </eigenvalues>
  <separator name="orbital magnetization" >
   <v name="MAGDIPOLOUT">      0.00000000      0.00000000      0.00000000</v>
  </separator>
  <dos>
   <i name="efermi">      1.78243355 </i>
   <total>
    <array>
     <dimension dim="1">gridpoints</dimension>
     <dimension dim="2">spin</dimension>
     <field>energy</field>
     <field>total</field>
     <field>integrated</field>
     <set>
      <set comment="spin 1">
       <r>   -19.6801     0.0000     0.0000 </r>
       <r>   -19.5695     0.0000     0.0000 </r>
       <r>   -19.4589     0.0000     0.0000 </r>
       <r>   -19.3482     0.0000     0.0000 </r>
       <r>   -19.2376     0.0000     0.0000 </r>
       <r>   -19.1270     0.0000     0.0000 </r>
       <r>   -19.0164     0.0000     0.0000 </r>
       <r>   -18.9058     0.0000     0.0000 </r>
       <r>   -18.7952     0.0000     0.0000 </r>
       <r>   -18.6846     0.0000     0.0000 </r>
       <r>   -18.5739     0.0000     0.0000 </r>
       <r>   -18.4633     0.0000     0.0000 </r>
       <r>   -18.3527     0.0015     0.0002 </r>
       <r>   -18.2421     0.0455     0.0052 </r>
       <r>   -18.1315     0.2561     0.0335 </r>
       <r>   -18.0209     0.9590     0.1396 </r>
       <r>   -17.9103     2.1805     0.3808 </r>
       <r>   -17.7996     2.2493     0.6296 </r>
       <r>   -17.6890     3.1554     0.9786 </r>
       <r>   -17.5784     6.7102     1.7209 </r>
       <r>   -17.4678     3.7429     2.1349 </r>
       <r>   -17.3572     0.7676     2.2198 </r>
       <r>   -17.2466     1.6665     2.4041 </r>
       <r>   -17.1360     7.3331     3.2153 </r>
       <r>   -17.0254     4.7041     3.7356 </r>
       <r>   -16.9147     0.5612     3.7977 </r>
       <r>   -16.8041     0.9805     3.9061 </r>
       <r>   -16.6935     2.7444     4.2097 </r>
       <r>   -16.5829     6.4676     4.9251 </r>
       <r>   -16.4723     3.7448     5.3393 </r>
       <r>   -16.3617     1.9899     5.5594 </r>
       <r>   -16.2511     2.2027     5.8031 </r>
       <r>   -16.1404     3.0054     6.1355 </r>
       <r>   -16.0298    16.0867     7.9149 </r>
       <r>   -15.9192    27.1594    10.9191 </r>
       <r>   -15.8086     9.2366    11.9408 </r>
       <r>   -15.6980     0.5307    11.9995 </r>
       <r>   -15.5874     0.0041    12.0000 </r>
       <r>   -15.4768     0.0000    12.0000 </r>
       <r>   -15.3661     0.0000    12.0000 </r>
       <r>   -15.2555     0.0000    12.0000 </r>
       <r>   -15.1449     0.0000    12.0000 </r>
       <r>   -15.0343     0.0000    12.0000 </r>
       <r>   -14.9237     0.0000    12.0000 </r>
       <r>   -14.8131     0.0000    12.0000 </r>
       <r>   -14.7025     0.0000    12.0000 </r>
       <r>   -14.5918     0.0000    12.0000 </r>
       <r>   -14.4812     0.0000    12.0000 </r>
       <r>   -14.3706     0.0000    12.0000 </r>
       <r>   -14.2600     0.0000    12.0000 </r>
       <r>   -14.1494     0.0000    12.0000 </r>
       <r>   -14.0388     0.0000    12.0000 </r>
       <r>   -13.9282     0.0000    12.0000 </r>
       <r>   -13.8176     0.0000    12.0000 </r>
       <r>   -13.7069     0.0000    12.0000 </r>
       <r>   -13.5963     0.0000    12.0000 </r>
       <r>   -13.4857     0.0000    12.0000 </r>
       <r>   -13.3751     0.0000    12.0000 </r>
       <r>   -13.2645     0.0000    12.0000 </r>
       <r>   -13.1539     0.0000    12.0000 </r>
       <r>   -13.0433     0.0000    12.0000 </r>
       <r>   -12.9326     0.0000    12.0000 </r>
       <r>   -12.8220     0.0000    12.0000 </r>
       <r>   -12.7114     0.0000    12.0000 </r>
       <r>   -12.6008     0.0000    12.0000 </r>
       <r>   -12.4902     0.0000    12.0000 </r>
       <r>   -12.3796     0.0000    12.0000 </r>
       <r>   -12.2690     0.0000    12.0000 </r>
       <r>   -12.1583     0.0000    12.0000 </r>
       <r>   -12.0477     0.0000    12.0000 </r>
       <r>   -11.9371     0.0000    12.0000 </r>
       <r>   -11.8265     0.0000    12.0000 </r>
       <r>   -11.7159     0.0000    12.0000 </r>
       <r>   -11.6053     0.0000    12.0000 </r>
       <r>   -11.4947     0.0000    12.0000 </r>
       <r>   -11.3841     0.0000    12.0000 </r>
       <r>   -11.2734     0.0000    12.0000 </r>
       <r>   -11.1628     0.0000    12.0000 </r>
       <r>   -11.0522     0.0000    12.0000 </r>
       <r>   -10.9416     0.0000    12.0000 </r>
       <r>   -10.8310     0.0000    12.0000 </r>
       <r>   -10.7204     0.0000    12.0000 </r>
       <r>   -10.6098     0.0000    12.0000 </r>
       <r>   -10.4991     0.0000    12.0000 </r>
       <r>   -10.3885     0.0000    12.0000 </r>
       <r>   -10.2779     0.0000    12.0000 </r>
       <r>   -10.1673     0.0000    12.0000 </r>
       <r>   -10.0567     0.0000    12.0000 </r>
       <r>    -9.9461     0.0000    12.0000 </r>
       <r>    -9.8355     0.0000    12.0000 </r>
       <r>    -9.7248     0.0000    12.0000 </r>
       <r>    -9.6142     0.0000    12.0000 </r>
       <r>    -9.5036     0.0000    12.0000 </r>
       <r>    -9.3930     0.0000    12.0000 </r>
       <r>    -9.2824     0.0000    12.0000 </r>
       <r>    -9.1718     0.0000    12.0000 </r>
       <r>    -9.0612     0.0000    12.0000 </r>
       <r>    -8.9506     0.0000    12.0000 </r>
       <r>    -8.8399     0.0000    12.0000 </r>
       <r>    -8.7293     0.0000    12.0000 </r>
       <r>    -8.6187     0.0000    12.0000 </r>
       <r>    -8.5081     0.0000    12.0000 </r>
       <r>    -8.3975     0.0000    12.0000 </r>
       <r>    -8.2869     0.0000    12.0000 </r>
       <r>    -8.1763     0.0001    12.0000 </r>
       <r>    -8.0656     0.0116    12.0013 </r>
       <r>    -7.9550     0.1105    12.0135 </r>
       <r>    -7.8444     0.1391    12.0289 </r>
       <r>    -7.7338     0.0933    12.0392 </r>
       <r>    -7.6232     0.4144    12.0851 </r>
       <r>    -7.5126     0.9717    12.1926 </r>
       <r>    -7.4020     1.2303    12.3287 </r>
       <r>    -7.2913     1.9599    12.5454 </r>
       <r>    -7.1807     1.0364    12.6601 </r>
       <r>    -7.0701     1.3865    12.8134 </r>
       <r>    -6.9595     4.6051    13.3228 </r>
       <r>    -6.8489     4.7540    13.8487 </r>
       <r>    -6.7383     1.5310    14.0180 </r>
       <r>    -6.6277     0.1981    14.0400 </r>
       <r>    -6.5170     0.6957    14.1169 </r>
       <r>    -6.4064     0.7975    14.2051 </r>
       <r>    -6.2958     0.1213    14.2185 </r>
       <r>    -6.1852     0.0253    14.2213 </r>
       <r>    -6.0746     0.5176    14.2786 </r>
       <r>    -5.9640     3.3888    14.6534 </r>
       <r>    -5.8534     6.9547    15.4227 </r>
       <r>    -5.7428     3.0294    15.7578 </r>
       <r>    -5.6321     0.2102    15.7811 </r>
       <r>    -5.5215     0.0171    15.7830 </r>
       <r>    -5.4109     0.3448    15.8211 </r>
       <r>    -5.3003     0.9960    15.9313 </r>
       <r>    -5.1897     0.9325    16.0344 </r>
       <r>    -5.0791     2.1805    16.2756 </r>
       <r>    -4.9685     3.8864    16.7055 </r>
       <r>    -4.8578     2.9724    17.0343 </r>
       <r>    -4.7472     1.8911    17.2435 </r>
       <r>    -4.6366     1.7872    17.4412 </r>
       <r>    -4.5260     2.0074    17.6632 </r>
       <r>    -4.4154     0.6326    17.7332 </r>
       <r>    -4.3048     0.7368    17.8147 </r>
       <r>    -4.1942     3.0516    18.1522 </r>
       <r>    -4.0835     8.8566    19.1319 </r>
       <r>    -3.9729     9.6917    20.2039 </r>
       <r>    -3.8623     6.6249    20.9367 </r>
       <r>    -3.7517     6.7643    21.6850 </r>
       <r>    -3.6411     5.6421    22.3091 </r>
       <r>    -3.5305     5.6816    22.9375 </r>
       <r>    -3.4199     5.1264    23.5046 </r>
       <r>    -3.3093     2.7091    23.8043 </r>
       <r>    -3.1986     1.4862    23.9686 </r>
       <r>    -3.0880     0.2767    23.9993 </r>
       <r>    -2.9774     0.0067    24.0000 </r>
       <r>    -2.8668     0.0000    24.0000 </r>
       <r>    -2.7562     0.0000    24.0000 </r>
       <r>    -2.6456     0.0000    24.0000 </r>
       <r>    -2.5350     0.0000    24.0000 </r>
       <r>    -2.4243     0.0000    24.0000 </r>
       <r>    -2.3137     0.0000    24.0000 </r>
       <r>    -2.2031     0.0013    24.0001 </r>
       <r>    -2.0925     0.1514    24.0169 </r>
       <r>    -1.9819     2.5381    24.2976 </r>
       <r>    -1.8713     7.9142    25.1731 </r>
       <r>    -1.7607     8.1601    26.0757 </r>
       <r>    -1.6500     6.8326    26.8315 </r>
       <r>    -1.5394     5.3716    27.4256 </r>
       <r>    -1.4288     6.3219    28.1249 </r>
       <r>    -1.3182     8.5138    29.0667 </r>
       <r>    -1.2076     5.9985    29.7302 </r>
       <r>    -1.0970     3.8990    30.1615 </r>
       <r>    -0.9864     4.7945    30.6918 </r>
       <r>    -0.8758     8.3616    31.6167 </r>
       <r>    -0.7651     6.9637    32.3870 </r>
       <r>    -0.6545     7.3458    33.1995 </r>
       <r>    -0.5439     6.3585    33.9029 </r>
       <r>    -0.4333     6.2425    34.5934 </r>
       <r>    -0.3227     5.9806    35.2549 </r>
       <r>    -0.2121     7.9942    36.1392 </r>
       <r>    -0.1015     9.8478    37.2285 </r>
       <r>     0.0092     8.1776    38.1330 </r>
       <r>     0.1198     8.9272    39.1205 </r>
       <r>     0.2304     9.4897    40.1702 </r>
       <r>     0.3410    10.6779    41.3513 </r>
       <r>     0.4516     8.8009    42.3248 </r>
       <r>     0.5622     5.7989    42.9663 </r>
       <r>     0.6728     6.2891    43.6619 </r>
       <r>     0.7835     5.2633    44.2441 </r>
       <r>     0.8941     6.6241    44.9768 </r>
       <r>     1.0047     6.7220    45.7204 </r>
       <r>     1.1153     7.7889    46.5819 </r>
       <r>     1.2259     8.3570    47.5063 </r>
       <r>     1.3365     3.8739    47.9348 </r>
       <r>     1.4471     0.5745    47.9984 </r>
       <r>     1.5577     0.0146    48.0000 </r>
       <r>     1.6684     0.0000    48.0000 </r>
       <r>     1.7790     0.0000    48.0000 </r>
       <r>     1.8896     0.0000    48.0000 </r>
       <r>     2.0002     0.0000    48.0000 </r>
       <r>     2.1108     0.0000    48.0000 </r>
       <r>     2.2214     0.0000    48.0000 </r>
       <r>     2.3320     0.0000    48.0000 </r>
       <r>     2.4427     0.0000    48.0000 </r>
       <r>     2.5533     0.0000    48.0000 </r>
       <r>     2.6639     0.0000    48.0000 </r>
       <r>     2.7745     0.0000    48.0000 </r>
       <r>     2.8851     0.0000    48.0000 </r>
       <r>     2.9957     0.0000    48.0000 </r>
       <r>     3.1063     0.0000    48.0000 </r>
       <r>     3.2170     0.0000    48.0000 </r>
       <r>     3.3276     0.0000    48.0000 </r>
       <r>     3.4382     0.0000    48.0000 </r>
       <r>     3.5488     0.0000    48.0000 </r>
       <r>     3.6594     0.0000    48.0000 </r>
       <r>     3.7700     0.0000    48.0000 </r>
       <r>     3.8806     0.0000    48.0000 </r>
       <r>     3.9913     0.0000    48.0000 </r>
       <r>     4.1019     0.0000    48.0000 </r>
       <r>     4.2125     0.0000    48.0000 </r>
       <r>     4.3231     0.0000    48.0000 </r>
       <r>     4.4337     0.0000    48.0000 </r>
       <r>     4.5443     0.0000    48.0000 </r>
       <r>     4.6549     0.0000    48.0000 </r>
       <r>     4.7655     0.0000    48.0000 </r>
       <r>     4.8762     0.0000    48.0000 </r>
       <r>     4.9868     0.0000    48.0000 </r>
       <r>     5.0974     0.0000    48.0000 </r>
       <r>     5.2080     0.0000    48.0000 </r>
       <r>     5.3186     0.0000    48.0000 </r>
       <r>     5.4292     0.0000    48.0000 </r>
       <r>     5.5398     0.0000    48.0000 </r>
       <r>     5.6505     0.0000    48.0000 </r>
       <r>     5.7611     0.0000    48.0000 </r>
       <r>     5.8717     0.0000    48.0000 </r>
       <r>     5.9823     0.0000    48.0000 </r>
       <r>     6.0929     0.0000    48.0000 </r>
       <r>     6.2035     0.0000    48.0000 </r>
       <r>     6.3141     0.0000    48.0000 </r>
       <r>     6.4248     0.0000    48.0000 </r>
       <r>     6.5354     0.0000    48.0000 </r>
       <r>     6.6460     0.0000    48.0000 </r>
       <r>     6.7566     0.0000    48.0000 </r>
       <r>     6.8672     0.0000    48.0000 </r>
       <r>     6.9778     0.0000    48.0000 </r>
       <r>     7.0884     0.0001    48.0000 </r>
       <r>     7.1990     0.0110    48.0012 </r>
       <r>     7.3097     0.1084    48.0132 </r>
       <r>     7.4203     0.1389    48.0286 </r>
       <r>     7.5309     0.0236    48.0312 </r>
       <r>     7.6415     0.0005    48.0313 </r>
       <r>     7.7521     0.0026    48.0315 </r>
       <r>     7.8627     0.0825    48.0407 </r>
       <r>     7.9733     0.3119    48.0752 </r>
       <r>     8.0840     0.1874    48.0959 </r>
       <r>     8.1946     0.4774    48.1487 </r>
       <r>     8.3052     0.9375    48.2524 </r>
       <r>     8.4158     0.2528    48.2804 </r>
       <r>     8.5264     0.0526    48.2862 </r>
       <r>     8.6370     0.7694    48.3713 </r>
       <r>     8.7476     1.8636    48.5774 </r>
       <r>     8.8583     0.6782    48.6525 </r>
       <r>     8.9689     0.0341    48.6562 </r>
       <r>     9.0795     0.0006    48.6563 </r>
       <r>     9.1901     0.0268    48.6592 </r>
       <r>     9.3007     0.2436    48.6862 </r>
       <r>     9.4113     0.5575    48.7479 </r>
       <r>     9.5219     1.0655    48.8657 </r>
       <r>     9.6325     1.4218    49.0230 </r>
       <r>     9.7432     3.0268    49.3578 </r>
       <r>     9.8538     3.0080    49.6905 </r>
       <r>     9.9644     1.7981    49.8894 </r>
       <r>    10.0750     0.5599    49.9513 </r>
       <r>    10.1856     1.0565    50.0682 </r>
       <r>    10.2962     1.3704    50.2198 </r>
       <r>    10.4068     1.9659    50.4372 </r>
       <r>    10.5175     3.0895    50.7790 </r>
       <r>    10.6281     4.8897    51.3198 </r>
       <r>    10.7387     9.0779    52.3240 </r>
       <r>    10.8493     6.3203    53.0231 </r>
       <r>    10.9599     6.3950    53.7305 </r>
       <r>    11.0705     7.5291    54.5633 </r>
       <r>    11.1811     3.1089    54.9072 </r>
       <r>    11.2918     3.6053    55.3060 </r>
       <r>    11.4024     5.5860    55.9239 </r>
       <r>    11.5130     6.3061    56.6214 </r>
       <r>    11.6236     5.4501    57.2243 </r>
       <r>    11.7342     3.3855    57.5988 </r>
       <r>    11.8448     2.2235    57.8447 </r>
       <r>    11.9554     0.7712    57.9300 </r>
       <r>    12.0661     0.4971    57.9850 </r>
       <r>    12.1767     0.1311    57.9995 </r>
       <r>    12.2873     0.0044    58.0000 </r>
       <r>    12.3979     0.0000    58.0000 </r>
       <r>    12.5085     0.0000    58.0000 </r>
       <r>    12.6191     0.0000    58.0000 </r>
       <r>    12.7297     0.0000    58.0000 </r>
       <r>    12.8403     0.0000    58.0000 </r>
       <r>    12.9510     0.0000    58.0000 </r>
       <r>    13.0616     0.0000    58.0000 </r>
       <r>    13.1722     0.0000    58.0000 </r>
       <r>    13.2828     0.0000    58.0000 </r>
       <r>    13.3934     0.0000    58.0000 </r>
       <r>    13.5040     0.0000    58.0000 </r>
      </set>
     </set>
    </array>
   </total>
  </dos>
 </calculation>
 <structure name="finalpos" >
  <crystal>
   <varray name="basis" >
    <v>       4.87342988       0.00000000       0.00000000 </v>
    <v>      -2.43671494       4.22051408       0.00000000 </v>
    <v>       0.00000000       0.00000000       5.37418982 </v>
   </varray>
   <i name="volume">    110.53837516 </i>
   <varray name="rec_basis" >
    <v>       0.20519429       0.11846898      -0.00000000 </v>
    <v>       0.00000000       0.23693796       0.00000000 </v>
    <v>       0.00000000      -0.00000000       0.18607456 </v>
   </varray>
  </crystal>
  <varray name="positions" >
   <v>       0.46452570       0.00000000       0.66666667 </v>
   <v>       0.00000000       0.46452570       0.33333333 </v>
   <v>       0.53547430       0.53547430       0.00000000 </v>
   <v>       0.13542180       0.72401582       0.55407965 </v>
   <v>       0.27598418       0.41140599       0.22074631 </v>
   <v>       0.58859401       0.86457820       0.88741298 </v>
   <v>       0.41140599       0.27598418       0.77925369 </v>
   <v>       0.86457820       0.58859401       0.11258702 </v>
   <v>       0.72401582       0.13542180       0.44592035 </v>
  </varray>
 </structure>
</modeling>
