<?xml version="1.0" encoding="ISO-8859-1"?>
<modeling>
 <generator>
  <i name="program" type="string">vasp </i>
  <i name="version" type="string">6.4.1  </i>
  <i name="subversion" type="string">05Apr23 (build Sep  6 2023 20:49:31) complex                          parallel </i>
  <i name="platform" type="string">LinuxNV </i>
  <i name="date" type="string">2023 10 19 </i>
  <i name="time" type="string">14:05:35 </i>
 </generator>
 <incar>
  <i type="string" name="PREC">Accurate</i>
  <i type="string" name="ALGO">Fast</i>
  <i name="EDIFF">      0.00000001</i>
  <i name="ENCUT">    500.00000000</i>
  <i type="int" name="ISMEAR">     0</i>
  <i name="SIGMA">      0.10000000</i>
  <i type="logical" name="LEPSILON"> T  </i>
 </incar>
 <primitive_cell>
  <structure name="primitive_cell" >
   <crystal>
    <varray name="basis" >
     <v>       4.87342988       0.00000000       0.00000000 </v>
     <v>      -2.43671494       4.22051408       0.00000000 </v>
     <v>       0.00000000       0.00000000       5.37418982 </v>
    </varray>
    <i name="volume">    110.53837516 </i>
    <varray name="rec_basis" >
     <v>       0.20519429       0.11846898      -0.00000000 </v>
     <v>       0.00000000       0.23693796       0.00000000 </v>
     <v>       0.00000000      -0.00000000       0.18607456 </v>
    </varray>
   </crystal>
   <varray name="positions" >
    <v>       0.46473579       0.00000000       0.66666667 </v>
    <v>       0.00000000       0.46473579       0.33333333 </v>
    <v>       0.53526421       0.53526421       0.00000000 </v>
    <v>       0.13533423       0.72403938       0.55425802 </v>
    <v>       0.27596062       0.41129484       0.22092468 </v>
    <v>       0.58870516       0.86466577       0.88759135 </v>
    <v>       0.41129484       0.27596062       0.77907532 </v>
    <v>       0.86466577       0.58870516       0.11240865 </v>
    <v>       0.72403938       0.13533423       0.44574198 </v>
   </varray>
  </structure>
  <varray name="primitive_index" >
   <v type="int" >        1 </v>
   <v type="int" >        2 </v>
   <v type="int" >        3 </v>
   <v type="int" >        4 </v>
   <v type="int" >        5 </v>
   <v type="int" >        6 </v>
   <v type="int" >        7 </v>
   <v type="int" >        8 </v>
   <v type="int" >        9 </v>
  </varray>
 </primitive_cell>
 <kpoints>
  <generation param="Gamma">
   <v type="int" name="divisions">       4        4        4 </v>
   <v name="usershift">      0.00000000       0.00000000       0.00000000 </v>
   <v name="genvec1">      0.25000000       0.00000000       0.00000000 </v>
   <v name="genvec2">      0.00000000       0.25000000       0.00000000 </v>
   <v name="genvec3">      0.00000000       0.00000000       0.25000000 </v>
   <v name="shift">      0.00000000       0.00000000       0.00000000 </v>
  </generation>
  <varray name="kpointlist" >
   <v>       0.00000000       0.00000000       0.00000000 </v>
   <v>       0.25000000       0.00000000       0.00000000 </v>
   <v>       0.50000000       0.00000000       0.00000000 </v>
   <v>       0.25000000       0.25000000       0.00000000 </v>
   <v>       0.00000000       0.00000000       0.25000000 </v>
   <v>       0.25000000       0.00000000       0.25000000 </v>
   <v>       0.00000000       0.25000000       0.25000000 </v>
   <v>       0.50000000       0.00000000       0.25000000 </v>
   <v>       0.25000000       0.25000000       0.25000000 </v>
   <v>       0.00000000       0.00000000       0.50000000 </v>
   <v>       0.25000000       0.00000000       0.50000000 </v>
   <v>       0.50000000       0.00000000       0.50000000 </v>
   <v>       0.25000000       0.25000000       0.50000000 </v>
  </varray>
  <varray name="weights" >
   <v>       0.01562500 </v>
   <v>       0.09375000 </v>
   <v>       0.04687500 </v>
   <v>       0.09375000 </v>
   <v>       0.03125000 </v>
   <v>       0.09375000 </v>
   <v>       0.09375000 </v>
   <v>       0.09375000 </v>
   <v>       0.18750000 </v>
   <v>       0.01562500 </v>
   <v>       0.09375000 </v>
   <v>       0.04687500 </v>
   <v>       0.09375000 </v>
  </varray>
 </kpoints>
 <parameters>
  <separator name="general" >
   <i type="string" name="SYSTEM">unknown system</i>
   <i type="logical" name="LCOMPAT"> F  </i>
  </separator>
  <separator name="electronic" >
   <i type="string" name="PREC">accura</i>
   <i name="ENMAX">    500.00000000</i>
   <i name="ENAUG">    605.39200000</i>
   <i name="EDIFF">      0.00000001</i>
   <i type="int" name="IALGO">    68</i>
   <i type="int" name="IWAVPR">    10</i>
   <i type="int" name="NBANDS">    29</i>
   <i type="int" name="NBANDSLOW">    -1</i>
   <i type="int" name="NBANDSHIGH">    -1</i>
   <i name="NELECT">     48.00000000</i>
   <i type="int" name="TURBO">     0</i>
   <i type="int" name="IRESTART">     0</i>
   <i type="int" name="NREBOOT">     0</i>
   <i type="int" name="NMIN">     0</i>
   <i name="EREF">      0.00000000</i>
   <separator name="electronic smearing" >
    <i type="int" name="ISMEAR">     0</i>
    <i name="SIGMA">      0.10000000</i>
    <i name="KSPACING">      0.50000000</i>
    <i type="logical" name="KGAMMA"> T  </i>
    <i type="logical" name="KBLOWUP"> T  </i>
   </separator>
   <separator name="electronic projectors" >
    <i type="logical" name="LREAL"> F  </i>
    <v name="ROPT">      0.00000000      0.00000000</v>
    <i type="int" name="LMAXPAW">  -100</i>
    <i type="int" name="LMAXMIX">     2</i>
    <i type="logical" name="NLSPLINE"> F  </i>
   </separator>
   <separator name="electronic startup" >
    <i type="int" name="ISTART">     0</i>
    <i type="int" name="ICHARG">     2</i>
    <i type="int" name="INIWAV">     1</i>
   </separator>
   <separator name="electronic spin" >
    <i type="int" name="ISPIN">     1</i>
    <i type="logical" name="LNONCOLLINEAR"> F  </i>
    <v name="MAGMOM">      1.00000000      1.00000000      1.00000000      1.00000000      1.00000000      1.00000000      1.00000000      1.00000000      1.00000000</v>
    <i name="NUPDOWN">     -1.00000000</i>
    <i type="logical" name="LSORBIT"> F  </i>
    <v name="SAXIS">      0.00000000      0.00000000      1.00000000</v>
    <i type="logical" name="LSPIRAL"> F  </i>
    <v name="QSPIRAL">      0.00000000      0.00000000      0.00000000</v>
    <i type="logical" name="LZEROZ"> F  </i>
   </separator>
   <separator name="electronic exchange-correlation" >
    <i type="logical" name="LASPH"> F  </i>
    <i type="logical" name="LMETAGGA"> F  </i>
   </separator>
   <separator name="electronic convergence" >
    <i type="int" name="NELM">    60</i>
    <i type="int" name="NELMDL">    -5</i>
    <i type="int" name="NELMIN">     2</i>
    <i name="ENINI">    500.00000000</i>
    <separator name="electronic convergence detail" >
     <i type="logical" name="LDIAG"> T  </i>
     <i type="logical" name="LSUBROT"> F  </i>
     <i name="WEIMIN">      0.00000000</i>
     <i name="EBREAK">      0.00000000</i>
     <i name="DEPER">      0.30000000</i>
     <i type="int" name="NRMM">     4</i>
     <i name="TIME">      0.40000000</i>
    </separator>
   </separator>
   <separator name="electronic mixer" >
    <i name="AMIX">      0.40000000</i>
    <i name="BMIX">      1.00000000</i>
    <i name="AMIN">      0.10000000</i>
    <i name="AMIX_MAG">      1.60000000</i>
    <i name="BMIX_MAG">      1.00000000</i>
    <separator name="electronic mixer details" >
     <i type="int" name="IMIX">     4</i>
     <i type="logical" name="MIXFIRST"> F  </i>
     <i type="int" name="MAXMIX">   -45</i>
     <i name="WC">    100.00000000</i>
     <i type="int" name="INIMIX">     1</i>
     <i type="int" name="MIXPRE">     1</i>
     <i type="int" name="MREMOVE">     5</i>
    </separator>
   </separator>
   <separator name="electronic dipolcorrection" >
    <i type="logical" name="LDIPOL"> F  </i>
    <i type="logical" name="LMONO"> F  </i>
    <i type="int" name="IDIPOL">     0</i>
    <i name="EPSILON">      1.00000000</i>
    <v name="DIPOL">   -100.00000000   -100.00000000   -100.00000000</v>
    <i name="EFIELD">      0.00000000</i>
   </separator>
  </separator>
  <separator name="grids" >
   <i type="int" name="NGX">    36</i>
   <i type="int" name="NGY">    36</i>
   <i type="int" name="NGZ">    40</i>
   <i type="int" name="NGXF">    72</i>
   <i type="int" name="NGYF">    72</i>
   <i type="int" name="NGZF">    80</i>
   <i type="logical" name="ADDGRID"> F  </i>
  </separator>
  <separator name="ionic" >
   <i type="int" name="NSW">     0</i>
   <i type="int" name="IBRION">    -1</i>
   <i type="int" name="MDALGO">     0</i>
   <i type="int" name="ISIF">     2</i>
   <i name="PSTRESS">      0.00000000</i>
   <i name="EDIFFG">      0.00000010</i>
   <i type="int" name="NFREE">     0</i>
   <i name="POTIM">      0.50000000</i>
   <i name="SMASS">     -3.00000000</i>
   <i name="SCALEE">      1.00000000</i>
  </separator>
  <separator name="ionic md" >
   <i name="TEBEG">      0.00010000</i>
   <i name="TEEND">      0.00010000</i>
   <i type="int" name="NBLOCK">     1</i>
   <i type="int" name="KBLOCK">     1</i>
   <i type="int" name="NPACO">   256</i>
   <i name="APACO">     10.00000000</i>
  </separator>
  <separator name="symmetry" >
   <i type="int" name="ISYM">     2</i>
   <i name="SYMPREC">      0.00001000</i>
  </separator>
  <separator name="dos" >
   <i type="int" name="LORBIT">     0</i>
   <v name="RWIGS">     -1.00000000     -1.00000000</v>
   <i type="int" name="NEDOS">   301</i>
   <i name="EMIN">     10.00000000</i>
   <i name="EMAX">    -10.00000000</i>
   <i name="EFERMI">      0.00000000</i>
  </separator>
  <separator name="writing" >
   <i type="int" name="NWRITE">     2</i>
   <i type="logical" name="LWAVE"> T  </i>
   <i type="logical" name="LDOWNSAMPLE"> F  </i>
   <i type="logical" name="LCHARG"> T  </i>
   <i type="logical" name="LPARD"> F  </i>
   <i type="logical" name="LVTOT"> F  </i>
   <i type="logical" name="LVHAR"> F  </i>
   <i type="logical" name="LELF"> F  </i>
   <i type="logical" name="LOPTICS"> F  </i>
   <v name="STM">      0.00000000      0.00000000      0.00000000      0.00000000      0.00000000      0.00000000      0.00000000</v>
  </separator>
  <separator name="performance" >
   <i type="int" name="NPAR">     1</i>
   <i type="int" name="NSIM">     4</i>
   <i type="int" name="NBLK">    -1</i>
   <i type="logical" name="LPLANE"> T  </i>
   <i type="logical" name="LSCALAPACK"> T  </i>
   <i type="logical" name="LSCAAWARE"> F  </i>
   <i type="logical" name="LSCALU"> F  </i>
   <i type="logical" name="LASYNC"> F  </i>
   <i type="logical" name="LORBITALREAL"> F  </i>
  </separator>
  <separator name="miscellaneous" >
   <i type="int" name="IDIOT">     3</i>
   <i type="int" name="PHON_NSTRUCT">    -1</i>
   <i type="logical" name="LMUSIC"> F  </i>
   <v name="POMASS">     28.08500000     16.00000000</v>
   <v name="DARWINR">      0.00000000      0.00000000</v>
   <v name="DARWINV">      1.00000000      1.00000000</v>
   <i type="logical" name="LCORR"> T  </i>
  </separator>
  <i type="logical" name="GGA_COMPAT"> T  </i>
  <i type="logical" name="LBERRY"> F  </i>
  <i type="int" name="ICORELEVEL">     0</i>
  <i type="logical" name="LDAU"> F  </i>
  <i type="int" name="I_CONSTRAINED_M">     0</i>
  <separator name="electronic exchange-correlation" >
   <i type="string" name="GGA">--</i>
   <i type="int" name="VOSKOWN">     0</i>
   <i type="logical" name="LHFCALC"> F  </i>
   <i type="string" name="PRECFOCK"></i>
   <i type="logical" name="LSYMGRAD"> F  </i>
   <i type="logical" name="LHFONE"> F  </i>
   <i type="logical" name="LRHFCALC"> F  </i>
   <i type="logical" name="LTHOMAS"> F  </i>
   <i type="logical" name="LMODELHF"> F  </i>
   <i type="logical" name="LFOCKACE"> F  </i>
   <i name="ENCUT4O">     -1.00000000</i>
   <i type="int" name="EXXOEP">     0</i>
   <i type="int" name="FOURORBIT">     0</i>
   <i name="AEXX">      0.00000000</i>
   <i name="HFALPHA">      0.00000000</i>
   <i name="MCALPHA">      0.00000000</i>
   <i name="ALDAX">      1.00000000</i>
   <i name="AGGAX">      1.00000000</i>
   <i name="ALDAC">      1.00000000</i>
   <i name="AGGAC">      1.00000000</i>
   <i type="int" name="NKREDX">     1</i>
   <i type="int" name="NKREDY">     1</i>
   <i type="int" name="NKREDZ">     1</i>
   <i type="logical" name="SHIFTRED"> F  </i>
   <i type="logical" name="ODDONLY"> F  </i>
   <i type="logical" name="EVENONLY"> F  </i>
   <i type="int" name="LMAXFOCK">     0</i>
   <i type="int" name="NMAXFOCKAE">     0</i>
   <i type="logical" name="LFOCKAEDFT"> F  </i>
   <i name="HFSCREEN">      0.00000000</i>
   <i name="HFSCREENC">      0.00000000</i>
   <i type="int" name="NBANDSGWLOW">     0</i>
  </separator>
  <separator name="vdW DFT" >
   <i type="logical" name="LUSE_VDW"> F  </i>
   <i type="int" name="IVDW_NL">     1</i>
   <i type="logical" name="LSPIN_VDW"> F  </i>
   <i name="Zab_VDW">     -0.84910000</i>
   <i name="PARAM1">      0.12340000</i>
   <i name="PARAM2">      1.00000000</i>
   <i name="PARAM3">      0.00000000</i>
  </separator>
  <separator name="model GW" >
   <i type="int" name="MODEL_GW">     0</i>
   <i name="MODEL_EPS0">      7.36922501</i>
   <i name="MODEL_ALPHA">      1.00000000</i>
  </separator>
  <separator name="linear response parameters" >
   <i type="logical" name="LEPSILON"> T  </i>
   <i type="logical" name="LRPA"> F  </i>
   <i type="logical" name="LNABLA"> F  </i>
   <i type="logical" name="LVEL"> F  </i>
   <i name="CSHIFT">      0.10000000</i>
   <i name="OMEGAMAX">     -1.00000000</i>
   <i name="DEG_THRESHOLD">      0.00200000</i>
   <i name="RTIME">     -0.10000000</i>
   <i name="WPLASMAI">      0.00000000</i>
   <v name="DFIELD">      0.00000000      0.00000000      0.00000000</v>
   <v name="WPLASMA">      0.00000000      0.00000000      0.00000000      0.00000000      0.00000000      0.00000000      0.00000000      0.00000000      0.00000000</v>
  </separator>
  <separator name="orbital magnetization" >
   <i type="logical" name="NUCIND"> F  </i>
   <v name="MAGPOS">      0.00000000      0.00000000      0.00000000</v>
   <i type="logical" name="LNICSALL"> T  </i>
   <i type="logical" name="ORBITALMAG"> F  </i>
   <i type="logical" name="LMAGBLOCH"> F  </i>
   <i type="logical" name="LCHIMAG"> F  </i>
   <i type="logical" name="LGAUGE"> T  </i>
   <i type="int" name="MAGATOM">     0</i>
   <v name="MAGDIPOL">      0.00000000      0.00000000      0.00000000</v>
   <v name="AVECCONST">      0.00000000      0.00000000      0.00000000</v>
  </separator>
  <separator name="response functions" >
   <i type="logical" name="LALL_IN_ONE"> F  </i>
   <i type="int" name="IALL_IN_ONE">    -1</i>
   <i type="int" name="NBANDS_WAVE">    -1</i>
   <i type="logical" name="LFINITE_TEMPERATURE"> F  </i>
   <i type="logical" name="LADDER"> F  </i>
   <i type="logical" name="LRPAFORCE"> F  </i>
   <i type="logical" name="LFXC"> F  </i>
   <i type="logical" name="LHARTREE"> T  </i>
   <i type="int" name="IBSE">     0</i>
   <v type="int" name="KPOINT">    -1     0     0     0</v>
   <i type="logical" name="LTCTC"> F  </i>
   <i type="logical" name="LTCTE"> F  </i>
   <i type="logical" name="LTETE"> F  </i>
   <i type="logical" name="LTRIPLET"> F  </i>
   <i type="logical" name="LFXCEPS"> F  </i>
   <i type="logical" name="LFXHEG"> F  </i>
   <i type="int" name="NATURALO">     2</i>
   <i type="logical" name="LHOLEGF"> F  </i>
   <i type="logical" name="L2ORDER"> F  </i>
   <i type="logical" name="LDMP1"> F  </i>
   <i type="logical" name="LMP2LT"> F  </i>
   <i type="logical" name="LSMP2LT"> F  </i>
   <i type="logical" name="LGWLF"> F  </i>
   <i name="ENCUTGW">     -1.60000002</i>
   <i name="ENCUTGWSOFT">     -1.60000002</i>
   <i name="ENCUTLF">     -1.00000000</i>
   <i type="logical" name="LESF_SPLINES"> F  </i>
   <i type="int" name="LMAXMP2">    -1</i>
   <i name="SCISSOR">      0.00000000</i>
   <i type="int" name="NOMEGA">     0</i>
   <i type="int" name="NOMEGAR">     0</i>
   <i type="int" name="NBANDSGW">    -1</i>
   <i type="int" name="NBANDSO">    -1</i>
   <i type="int" name="NBANDSV">    -1</i>
   <i type="int" name="NELMGW">     1</i>
   <i type="int" name="NELMHF">     1</i>
   <i type="int" name="DIM">     3</i>
   <i type="int" name="IESPILON">     4</i>
   <i type="int" name="ANTIRES">     0</i>
   <i name="OMEGAMAX">    -30.00000000</i>
   <i name="OMEGAMIN">    -30.00000000</i>
   <i name="OMEGATL">   -200.00000000</i>
   <i type="int" name="OMEGAGRID">     0</i>
   <i name="CSHIFT">     -0.10000000</i>
   <i type="logical" name="LSELFENERGY"> F  </i>
   <i type="logical" name="LSPECTRAL"> F  </i>
   <i type="logical" name="LSPECTRALGW"> F  </i>
   <i type="logical" name="LSINGLES"> F  </i>
   <i type="logical" name="LFERMIGW"> F  </i>
   <i type="logical" name="ODDONLYGW"> F  </i>
   <i type="logical" name="EVENONLYGW"> F  </i>
   <i type="int" name="NKREDLFX">     1</i>
   <i type="int" name="NKREDLFY">     1</i>
   <i type="int" name="NKREDLFZ">     1</i>
   <i type="int" name="MAXMEM">  2800</i>
   <i type="int" name="TELESCOPE">     0</i>
   <i type="int" name="NTAUPAR">    -1</i>
   <i type="int" name="NOMEGAPAR">    -1</i>
   <i name="DAMP_NEWTON">      0.80000001</i>
   <i name="LAMBDA">      1.00000000</i>
  </separator>
  <separator name="External order field" >
   <i name="OFIELD_KAPPA">      0.00000000</i>
   <v name="OFIELD_K">      0.00000000      0.00000000      0.00000000</v>
   <i name="OFIELD_Q6_NEAR">      0.00000000</i>
   <i name="OFIELD_Q6_FAR">      0.00000000</i>
   <i name="OFIELD_A">      0.00000000</i>
  </separator>
  <separator name="optional k-points parameters" >
   <i type="int" name="KPOINTS_OPT_MODE">     1</i>
   <i type="logical" name="LKPOINTS_OPT"> F  </i>
  </separator>
 </parameters>
 <atominfo>
  <atoms>       9 </atoms>
  <types>       2 </types>
  <array name="atoms" >
   <dimension dim="1">ion</dimension>
   <field type="string">element</field>
   <field type="int">atomtype</field>
   <set>
    <rc><c>Si</c><c>   1</c></rc>
    <rc><c>Si</c><c>   1</c></rc>
    <rc><c>Si</c><c>   1</c></rc>
    <rc><c>O </c><c>   2</c></rc>
    <rc><c>O </c><c>   2</c></rc>
    <rc><c>O </c><c>   2</c></rc>
    <rc><c>O </c><c>   2</c></rc>
    <rc><c>O </c><c>   2</c></rc>
    <rc><c>O </c><c>   2</c></rc>
   </set>
  </array>
  <array name="atomtypes" >
   <dimension dim="1">type</dimension>
   <field type="int">atomspertype</field>
   <field type="string">element</field>
   <field>mass</field>
   <field>valence</field>
   <field type="string">pseudopotential</field>
   <set>
    <rc><c>   3</c><c>Si</c><c>     28.08500000</c><c>      4.00000000</c><c>  PAW_PBE Si 05Jan2001                  </c></rc>
    <rc><c>   6</c><c>O </c><c>     16.00000000</c><c>      6.00000000</c><c>  PAW_PBE O 08Apr2002                   </c></rc>
   </set>
  </array>
 </atominfo>
 <structure name="initialpos" >
  <crystal>
   <varray name="basis" >
    <v>       4.87342988       0.00000000       0.00000000 </v>
    <v>      -2.43671494       4.22051408       0.00000000 </v>
    <v>       0.00000000       0.00000000       5.37418982 </v>
   </varray>
   <i name="volume">    110.53837516 </i>
   <varray name="rec_basis" >
    <v>       0.20519429       0.11846898      -0.00000000 </v>
    <v>       0.00000000       0.23693796       0.00000000 </v>
    <v>       0.00000000      -0.00000000       0.18607456 </v>
   </varray>
  </crystal>
  <varray name="positions" >
   <v>       0.46473579       0.00000000       0.66666667 </v>
   <v>       0.00000000       0.46473579       0.33333333 </v>
   <v>       0.53526421       0.53526421       0.00000000 </v>
   <v>       0.13533423       0.72403938       0.55425802 </v>
   <v>       0.27596062       0.41129484       0.22092468 </v>
   <v>       0.58870516       0.86466577       0.88759135 </v>
   <v>       0.41129484       0.27596062       0.77907532 </v>
   <v>       0.86466577       0.58870516       0.11240865 </v>
   <v>       0.72403938       0.13533423       0.44574198 </v>
  </varray>
 </structure>
 <calculation>
  <scstep>
   <time name="dav">    0.48    0.49</time>
   <time name="total">    0.52    0.51</time>
   <energy>
    <i name="alphaZ">     71.30271804 </i>
    <i name="ewald">  -1930.78512439 </i>
    <i name="hartreedc">   -908.98630194 </i>
    <i name="XCdc">    141.70266357 </i>
    <i name="pawpsdc">   2343.66826019 </i>
    <i name="pawaedc">  -2301.68043871 </i>
    <i name="eentropy">     -0.00332223 </i>
    <i name="bandstr">    -13.48173518 </i>
    <i name="atom">   2903.33737771 </i>
    <i name="e_fr_energy">    305.07409707 </i>
    <i name="e_wo_entrp">    305.07741930 </i>
    <i name="e_0_energy">    305.07575818 </i>
   </energy>
  </scstep>
  <scstep>
   <time name="dav">    0.44    0.44</time>
   <time name="total">    0.44    0.44</time>
   <energy>
    <i name="e_fr_energy">    -60.79994611 </i>
    <i name="e_wo_entrp">    -60.79994611 </i>
    <i name="e_0_energy">    -60.79994611 </i>
   </energy>
  </scstep>
  <scstep>
   <time name="dav">    0.42    0.42</time>
   <time name="total">    0.42    0.42</time>
   <energy>
    <i name="e_fr_energy">    -80.16024157 </i>
    <i name="e_wo_entrp">    -80.16024157 </i>
    <i name="e_0_energy">    -80.16024157 </i>
   </energy>
  </scstep>
  <scstep>
   <time name="dav">    0.42    0.42</time>
   <time name="total">    0.42    0.42</time>
   <energy>
    <i name="e_fr_energy">    -80.41327189 </i>
    <i name="e_wo_entrp">    -80.41327189 </i>
    <i name="e_0_energy">    -80.41327189 </i>
   </energy>
  </scstep>
  <scstep>
   <time name="dav">    0.41    0.41</time>
   <time name="total">    0.50    0.47</time>
   <energy>
    <i name="e_fr_energy">    -80.41827568 </i>
    <i name="e_wo_entrp">    -80.41827568 </i>
    <i name="e_0_energy">    -80.41827568 </i>
   </energy>
  </scstep>
  <scstep>
   <time name="diag">    0.05    0.04</time>
   <time name="diis">    0.47    0.47</time>
   <time name="orth">    0.00    0.00</time>
   <time name="total">    0.63    0.58</time>
   <energy>
    <i name="e_fr_energy">    -70.67514592 </i>
    <i name="e_wo_entrp">    -70.67514592 </i>
    <i name="e_0_energy">    -70.67514592 </i>
   </energy>
  </scstep>
  <scstep>
   <time name="diag">    0.05    0.04</time>
   <time name="diis">    0.51    0.51</time>
   <time name="orth">    0.00    0.00</time>
   <time name="total">    0.68    0.63</time>
   <energy>
    <i name="e_fr_energy">    -70.97812179 </i>
    <i name="e_wo_entrp">    -70.97812179 </i>
    <i name="e_0_energy">    -70.97812179 </i>
   </energy>
  </scstep>
  <scstep>
   <time name="diag">    0.05    0.04</time>
   <time name="diis">    0.52    0.52</time>
   <time name="orth">    0.00    0.00</time>
   <time name="total">    0.68    0.63</time>
   <energy>
    <i name="e_fr_energy">    -70.97015745 </i>
    <i name="e_wo_entrp">    -70.97015745 </i>
    <i name="e_0_energy">    -70.97015745 </i>
   </energy>
  </scstep>
  <scstep>
   <time name="diag">    0.05    0.04</time>
   <time name="diis">    0.52    0.53</time>
   <time name="orth">    0.00    0.00</time>
   <time name="total">    0.69    0.64</time>
   <energy>
    <i name="e_fr_energy">    -70.98924512 </i>
    <i name="e_wo_entrp">    -70.98924512 </i>
    <i name="e_0_energy">    -70.98924512 </i>
   </energy>
  </scstep>
  <scstep>
   <time name="diag">    0.05    0.04</time>
   <time name="diis">    0.52    0.53</time>
   <time name="orth">    0.00    0.00</time>
   <time name="total">    0.69    0.64</time>
   <energy>
    <i name="e_fr_energy">    -70.99457415 </i>
    <i name="e_wo_entrp">    -70.99457415 </i>
    <i name="e_0_energy">    -70.99457415 </i>
   </energy>
  </scstep>
  <scstep>
   <time name="diag">    0.05    0.04</time>
   <time name="diis">    0.52    0.52</time>
   <time name="orth">    0.00    0.00</time>
   <time name="total">    0.69    0.64</time>
   <energy>
    <i name="e_fr_energy">    -70.99069141 </i>
    <i name="e_wo_entrp">    -70.99069141 </i>
    <i name="e_0_energy">    -70.99069141 </i>
   </energy>
  </scstep>
  <scstep>
   <time name="diag">    0.05    0.04</time>
   <time name="diis">    0.52    0.53</time>
   <time name="orth">    0.00    0.00</time>
   <time name="total">    0.69    0.64</time>
   <energy>
    <i name="e_fr_energy">    -70.99129271 </i>
    <i name="e_wo_entrp">    -70.99129271 </i>
    <i name="e_0_energy">    -70.99129271 </i>
   </energy>
  </scstep>
  <scstep>
   <time name="diag">    0.05    0.04</time>
   <time name="diis">    0.56    0.56</time>
   <time name="orth">    0.00    0.00</time>
   <time name="total">    0.72    0.67</time>
   <energy>
    <i name="e_fr_energy">    -70.99105539 </i>
    <i name="e_wo_entrp">    -70.99105539 </i>
    <i name="e_0_energy">    -70.99105539 </i>
   </energy>
  </scstep>
  <scstep>
   <time name="diag">    0.05    0.04</time>
   <time name="diis">    0.53    0.53</time>
   <time name="orth">    0.00    0.00</time>
   <time name="total">    0.70    0.65</time>
   <energy>
    <i name="e_fr_energy">    -70.99101603 </i>
    <i name="e_wo_entrp">    -70.99101603 </i>
    <i name="e_0_energy">    -70.99101603 </i>
   </energy>
  </scstep>
  <scstep>
   <time name="diag">    0.05    0.04</time>
   <time name="diis">    0.57    0.58</time>
   <time name="orth">    0.00    0.00</time>
   <time name="total">    0.74    0.69</time>
   <energy>
    <i name="e_fr_energy">    -70.99101259 </i>
    <i name="e_wo_entrp">    -70.99101259 </i>
    <i name="e_0_energy">    -70.99101259 </i>
   </energy>
  </scstep>
  <scstep>
   <time name="diag">    0.05    0.04</time>
   <time name="diis">    0.53    0.53</time>
   <time name="orth">    0.00    0.00</time>
   <time name="total">    0.69    0.64</time>
   <energy>
    <i name="e_fr_energy">    -70.99101139 </i>
    <i name="e_wo_entrp">    -70.99101139 </i>
    <i name="e_0_energy">    -70.99101139 </i>
   </energy>
  </scstep>
  <scstep>
   <time name="diag">    0.05    0.04</time>
   <time name="diis">    0.53    0.53</time>
   <time name="orth">    0.00    0.00</time>
   <time name="total">    0.69    0.64</time>
   <energy>
    <i name="e_fr_energy">    -70.99101160 </i>
    <i name="e_wo_entrp">    -70.99101160 </i>
    <i name="e_0_energy">    -70.99101160 </i>
   </energy>
  </scstep>
  <scstep>
   <time name="diag">    0.05    0.04</time>
   <time name="diis">    0.57    0.57</time>
   <time name="orth">    0.00    0.00</time>
   <time name="total">    0.78    0.69</time>
   <energy>
    <i name="e_fr_energy">    -70.99101178 </i>
    <i name="e_wo_entrp">    -70.99101178 </i>
    <i name="e_0_energy">    -70.99101178 </i>
   </energy>
  </scstep>
  <scstep>
   <time name="diag">    0.05    0.04</time>
   <time name="diis">    0.53    0.53</time>
   <time name="orth">    0.00    0.00</time>
   <time name="total">    0.69    0.64</time>
   <energy>
    <i name="e_fr_energy">    -70.99101176 </i>
    <i name="e_wo_entrp">    -70.99101176 </i>
    <i name="e_0_energy">    -70.99101176 </i>
   </energy>
  </scstep>
  <scstep>
   <time name="diag">    0.05    0.04</time>
   <time name="diis">    0.53    0.53</time>
   <time name="orth">    0.00    0.00</time>
   <time name="total">    0.69    0.64</time>
   <energy>
    <i name="e_fr_energy">    -70.99101179 </i>
    <i name="e_wo_entrp">    -70.99101179 </i>
    <i name="e_0_energy">    -70.99101179 </i>
   </energy>
  </scstep>
  <scstep>
   <time name="diag">    0.05    0.04</time>
   <time name="diis">    0.36    0.36</time>
   <time name="orth">    0.00    0.00</time>
   <time name="total">    0.52    0.47</time>
   <energy>
    <i name="e_fr_energy">    -70.99101177 </i>
    <i name="e_wo_entrp">    -70.99101177 </i>
    <i name="e_0_energy">    -70.99101177 </i>
   </energy>
  </scstep>
  <scstep>
   <time name="diag">    0.05    0.04</time>
   <time name="diis">    0.35    0.35</time>
   <time name="orth">    0.00    0.00</time>
   <time name="total">    0.43    0.40</time>
   <energy>
    <i name="alphaZ">     71.30271804 </i>
    <i name="ewald">  -1930.78512439 </i>
    <i name="hartreedc">  -1040.04065521 </i>
    <i name="XCdc">    150.67281396 </i>
    <i name="pawpsdc">   8034.75745609 </i>
    <i name="pawaedc">  -7995.13147820 </i>
    <i name="eentropy">     -0.00000000 </i>
    <i name="bandstr">   -265.10411978 </i>
    <i name="atom">   2903.33737771 </i>
    <i name="e_fr_energy">    -70.99101177 </i>
    <i name="e_wo_entrp">    -70.99101177 </i>
    <i name="e_0_energy">    -70.99101177 </i>
   </energy>
  </scstep>
  <structure>
   <crystal>
    <varray name="basis" >
     <v>       4.87342988       0.00000000       0.00000000 </v>
     <v>      -2.43671494       4.22051408       0.00000000 </v>
     <v>       0.00000000       0.00000000       5.37418982 </v>
    </varray>
    <i name="volume">    110.53837516 </i>
    <varray name="rec_basis" >
     <v>       0.20519429       0.11846898      -0.00000000 </v>
     <v>       0.00000000       0.23693796       0.00000000 </v>
     <v>       0.00000000      -0.00000000       0.18607456 </v>
    </varray>
   </crystal>
   <varray name="positions" >
    <v>       0.46473579       0.00000000       0.66666667 </v>
    <v>       0.00000000       0.46473579       0.33333333 </v>
    <v>       0.53526421       0.53526421       0.00000000 </v>
    <v>       0.13533423       0.72403938       0.55425802 </v>
    <v>       0.27596062       0.41129484       0.22092468 </v>
    <v>       0.58870516       0.86466577       0.88759135 </v>
    <v>       0.41129484       0.27596062       0.77907532 </v>
    <v>       0.86466577       0.58870516       0.11240865 </v>
    <v>       0.72403938       0.13533423       0.44574198 </v>
   </varray>
  </structure>
  <varray name="forces" >
   <v>       0.01261485      -0.00000000       0.00000000 </v>
   <v>      -0.00630742       0.01092478       0.00000000 </v>
   <v>      -0.00630742      -0.01092478       0.00000000 </v>
   <v>      -0.26437786      -0.00403022       0.14882527 </v>
   <v>       0.13567920      -0.22694283       0.14882527 </v>
   <v>       0.12869866       0.23097305       0.14882527 </v>
   <v>      -0.26437786       0.00403022      -0.14882527 </v>
   <v>       0.13567920       0.22694283      -0.14882527 </v>
   <v>       0.12869866      -0.23097305      -0.14882527 </v>
  </varray>
  <varray name="stress" >
   <v>      70.99522502       0.00000000       0.00000000 </v>
   <v>       0.00000000      70.99522502      -0.00000000 </v>
   <v>       0.00000000       0.00000000      72.70797080 </v>
  </varray>
  <energy>
   <i name="e_fr_energy">    -70.99101177 </i>
   <i name="e_wo_entrp">    -70.99101177 </i>
   <i name="e_0_energy">    -70.99101177 </i>
  </energy>
  <scstep>
   <time name="total">    6.52    1.39</time>
   <energy>
    <i name="e_fr_energy">   -182.68002333 </i>
    <i name="e_wo_entrp">   -182.68002333 </i>
    <i name="e_0_energy">   -182.68002333 </i>
   </energy>
  </scstep>
  <scstep>
   <time name="total">    6.37    1.23</time>
   <energy>
    <i name="e_fr_energy">   -172.55170218 </i>
    <i name="e_wo_entrp">   -172.55170218 </i>
    <i name="e_0_energy">   -172.55170218 </i>
   </energy>
  </scstep>
  <scstep>
   <time name="total">    6.40    1.25</time>
   <energy>
    <i name="e_fr_energy">   -172.69812339 </i>
    <i name="e_wo_entrp">   -172.69812339 </i>
    <i name="e_0_energy">   -172.69812339 </i>
   </energy>
  </scstep>
  <scstep>
   <time name="total">    0.50    0.50</time>
   <energy>
    <i name="e_fr_energy">   -172.70551752 </i>
    <i name="e_wo_entrp">   -172.70551752 </i>
    <i name="e_0_energy">   -172.70551752 </i>
   </energy>
  </scstep>
  <scstep>
   <time name="total">    0.50    0.50</time>
   <energy>
    <i name="e_fr_energy">   -172.70568989 </i>
    <i name="e_wo_entrp">   -172.70568989 </i>
    <i name="e_0_energy">   -172.70568989 </i>
   </energy>
  </scstep>
  <scstep>
   <time name="total">    0.50    0.50</time>
   <energy>
    <i name="e_fr_energy">   -172.70570063 </i>
    <i name="e_wo_entrp">   -172.70570063 </i>
    <i name="e_0_energy">   -172.70570063 </i>
   </energy>
  </scstep>
  <scstep>
   <time name="total">    0.51    0.51</time>
   <energy>
    <i name="e_fr_energy">   -172.70569947 </i>
    <i name="e_wo_entrp">   -172.70569947 </i>
    <i name="e_0_energy">   -172.70569947 </i>
   </energy>
  </scstep>
  <scstep>
   <time name="total">    0.51    0.52</time>
   <energy>
    <i name="e_fr_energy">   -172.70569547 </i>
    <i name="e_wo_entrp">   -172.70569547 </i>
    <i name="e_0_energy">   -172.70569547 </i>
   </energy>
  </scstep>
  <scstep>
   <time name="total">    0.52    0.52</time>
   <energy>
    <i name="e_fr_energy">   -172.70569415 </i>
    <i name="e_wo_entrp">   -172.70569415 </i>
    <i name="e_0_energy">   -172.70569415 </i>
   </energy>
  </scstep>
  <scstep>
   <time name="total">    0.52    0.52</time>
   <energy>
    <i name="e_fr_energy">   -172.70569407 </i>
    <i name="e_wo_entrp">   -172.70569407 </i>
    <i name="e_0_energy">   -172.70569407 </i>
   </energy>
  </scstep>
  <scstep>
   <time name="total">    6.50    1.39</time>
   <energy>
    <i name="e_fr_energy">   -182.13219023 </i>
    <i name="e_wo_entrp">   -182.13219023 </i>
    <i name="e_0_energy">   -182.13219023 </i>
   </energy>
  </scstep>
  <scstep>
   <time name="total">    6.39    1.22</time>
   <energy>
    <i name="e_fr_energy">   -172.66654911 </i>
    <i name="e_wo_entrp">   -172.66654911 </i>
    <i name="e_0_energy">   -172.66654911 </i>
   </energy>
  </scstep>
  <scstep>
   <time name="total">    6.38    1.23</time>
   <energy>
    <i name="e_fr_energy">   -172.80964019 </i>
    <i name="e_wo_entrp">   -172.80964019 </i>
    <i name="e_0_energy">   -172.80964019 </i>
   </energy>
  </scstep>
  <scstep>
   <time name="total">    0.50    0.50</time>
   <energy>
    <i name="e_fr_energy">   -172.81694958 </i>
    <i name="e_wo_entrp">   -172.81694958 </i>
    <i name="e_0_energy">   -172.81694958 </i>
   </energy>
  </scstep>
  <scstep>
   <time name="total">    0.50    0.50</time>
   <energy>
    <i name="e_fr_energy">   -172.81713633 </i>
    <i name="e_wo_entrp">   -172.81713633 </i>
    <i name="e_0_energy">   -172.81713633 </i>
   </energy>
  </scstep>
  <scstep>
   <time name="total">    0.51    0.51</time>
   <energy>
    <i name="e_fr_energy">   -172.81715274 </i>
    <i name="e_wo_entrp">   -172.81715274 </i>
    <i name="e_0_energy">   -172.81715274 </i>
   </energy>
  </scstep>
  <scstep>
   <time name="total">    0.52    0.52</time>
   <energy>
    <i name="e_fr_energy">   -172.81715459 </i>
    <i name="e_wo_entrp">   -172.81715459 </i>
    <i name="e_0_energy">   -172.81715459 </i>
   </energy>
  </scstep>
  <scstep>
   <time name="total">    0.52    0.52</time>
   <energy>
    <i name="e_fr_energy">   -172.81715598 </i>
    <i name="e_wo_entrp">   -172.81715598 </i>
    <i name="e_0_energy">   -172.81715598 </i>
   </energy>
  </scstep>
  <scstep>
   <time name="total">    0.51    0.52</time>
   <energy>
    <i name="e_fr_energy">   -172.81715521 </i>
    <i name="e_wo_entrp">   -172.81715521 </i>
    <i name="e_0_energy">   -172.81715521 </i>
   </energy>
  </scstep>
  <scstep>
   <time name="total">    0.51    0.51</time>
   <energy>
    <i name="e_fr_energy">   -172.81715483 </i>
    <i name="e_wo_entrp">   -172.81715483 </i>
    <i name="e_0_energy">   -172.81715483 </i>
   </energy>
  </scstep>
  <scstep>
   <time name="total">    6.59    1.42</time>
   <energy>
    <i name="e_fr_energy">   -182.22838714 </i>
    <i name="e_wo_entrp">   -182.22838714 </i>
    <i name="e_0_energy">   -182.22838714 </i>
   </energy>
  </scstep>
  <scstep>
   <time name="total">    6.43    1.23</time>
   <energy>
    <i name="e_fr_energy">   -172.55508420 </i>
    <i name="e_wo_entrp">   -172.55508420 </i>
    <i name="e_0_energy">   -172.55508420 </i>
   </energy>
  </scstep>
  <scstep>
   <time name="total">    6.49    1.25</time>
   <energy>
    <i name="e_fr_energy">   -172.70760857 </i>
    <i name="e_wo_entrp">   -172.70760857 </i>
    <i name="e_0_energy">   -172.70760857 </i>
   </energy>
  </scstep>
  <scstep>
   <time name="total">    0.51    0.51</time>
   <energy>
    <i name="e_fr_energy">   -172.71491634 </i>
    <i name="e_wo_entrp">   -172.71491634 </i>
    <i name="e_0_energy">   -172.71491634 </i>
   </energy>
  </scstep>
  <scstep>
   <time name="total">    0.50    0.50</time>
   <energy>
    <i name="e_fr_energy">   -172.71507725 </i>
    <i name="e_wo_entrp">   -172.71507725 </i>
    <i name="e_0_energy">   -172.71507725 </i>
   </energy>
  </scstep>
  <scstep>
   <time name="total">    0.51    0.51</time>
   <energy>
    <i name="e_fr_energy">   -172.71508038 </i>
    <i name="e_wo_entrp">   -172.71508038 </i>
    <i name="e_0_energy">   -172.71508038 </i>
   </energy>
  </scstep>
  <scstep>
   <time name="total">    0.52    0.52</time>
   <energy>
    <i name="e_fr_energy">   -172.71508281 </i>
    <i name="e_wo_entrp">   -172.71508281 </i>
    <i name="e_0_energy">   -172.71508281 </i>
   </energy>
  </scstep>
  <scstep>
   <time name="total">    0.51    0.51</time>
   <energy>
    <i name="e_fr_energy">   -172.71508040 </i>
    <i name="e_wo_entrp">   -172.71508040 </i>
    <i name="e_0_energy">   -172.71508040 </i>
   </energy>
  </scstep>
  <scstep>
   <time name="total">    0.51    0.51</time>
   <energy>
    <i name="e_fr_energy">   -172.71506800 </i>
    <i name="e_wo_entrp">   -172.71506800 </i>
    <i name="e_0_energy">   -172.71506800 </i>
   </energy>
  </scstep>
  <scstep>
   <time name="total">    0.51    0.51</time>
   <energy>
    <i name="e_fr_energy">   -172.71507009 </i>
    <i name="e_wo_entrp">   -172.71507009 </i>
    <i name="e_0_energy">   -172.71507009 </i>
   </energy>
  </scstep>
  <scstep>
   <time name="total">    1.20    0.73</time>
   <energy>
    <i name="e_fr_energy">     -0.48253681 </i>
    <i name="e_wo_entrp">     -0.48253681 </i>
    <i name="e_0_energy">     -0.48253681 </i>
   </energy>
  </scstep>
  <scstep>
   <time name="total">    1.18    0.72</time>
   <energy>
    <i name="e_fr_energy">     -0.48496989 </i>
    <i name="e_wo_entrp">     -0.48496989 </i>
    <i name="e_0_energy">     -0.48496989 </i>
   </energy>
  </scstep>
  <scstep>
   <time name="total">    1.18    0.72</time>
   <energy>
    <i name="e_fr_energy">     -0.48515265 </i>
    <i name="e_wo_entrp">     -0.48515265 </i>
    <i name="e_0_energy">     -0.48515265 </i>
   </energy>
  </scstep>
  <scstep>
   <time name="total">    1.19    0.72</time>
   <energy>
    <i name="e_fr_energy">     -0.48516127 </i>
    <i name="e_wo_entrp">     -0.48516127 </i>
    <i name="e_0_energy">     -0.48516127 </i>
   </energy>
  </scstep>
  <scstep>
   <time name="total">    1.19    0.72</time>
   <energy>
    <i name="e_fr_energy">     -0.48516157 </i>
    <i name="e_wo_entrp">     -0.48516157 </i>
    <i name="e_0_energy">     -0.48516157 </i>
   </energy>
  </scstep>
  <scstep>
   <time name="total">    1.16    0.70</time>
   <energy>
    <i name="e_fr_energy">     -0.48516159 </i>
    <i name="e_wo_entrp">     -0.48516159 </i>
    <i name="e_0_energy">     -0.48516159 </i>
   </energy>
  </scstep>
  <scstep>
   <time name="total">    1.14    0.67</time>
   <energy>
    <i name="e_fr_energy">     -0.48516159 </i>
    <i name="e_wo_entrp">     -0.48516159 </i>
    <i name="e_0_energy">     -0.48516159 </i>
   </energy>
  </scstep>
  <scstep>
   <time name="total">    1.13    0.66</time>
   <energy>
    <i name="e_fr_energy">     -0.48516159 </i>
    <i name="e_wo_entrp">     -0.48516159 </i>
    <i name="e_0_energy">     -0.48516159 </i>
   </energy>
  </scstep>
  <scstep>
   <time name="total">    1.12    0.65</time>
   <energy>
    <i name="e_fr_energy">     -0.48516159 </i>
    <i name="e_wo_entrp">     -0.48516159 </i>
    <i name="e_0_energy">     -0.48516159 </i>
   </energy>
  </scstep>
  <scstep>
   <time name="total">    1.21    0.73</time>
   <energy>
    <i name="e_fr_energy">     -0.48426343 </i>
    <i name="e_wo_entrp">     -0.48426343 </i>
    <i name="e_0_energy">     -0.48426343 </i>
   </energy>
  </scstep>
  <scstep>
   <time name="total">    1.20    0.73</time>
   <energy>
    <i name="e_fr_energy">     -0.48647142 </i>
    <i name="e_wo_entrp">     -0.48647142 </i>
    <i name="e_0_energy">     -0.48647142 </i>
   </energy>
  </scstep>
  <scstep>
   <time name="total">    1.20    0.73</time>
   <energy>
    <i name="e_fr_energy">     -0.48666520 </i>
    <i name="e_wo_entrp">     -0.48666520 </i>
    <i name="e_0_energy">     -0.48666520 </i>
   </energy>
  </scstep>
  <scstep>
   <time name="total">    1.21    0.73</time>
   <energy>
    <i name="e_fr_energy">     -0.48667403 </i>
    <i name="e_wo_entrp">     -0.48667403 </i>
    <i name="e_0_energy">     -0.48667403 </i>
   </energy>
  </scstep>
  <scstep>
   <time name="total">    1.21    0.73</time>
   <energy>
    <i name="e_fr_energy">     -0.48667434 </i>
    <i name="e_wo_entrp">     -0.48667434 </i>
    <i name="e_0_energy">     -0.48667434 </i>
   </energy>
  </scstep>
  <scstep>
   <time name="total">    1.19    0.71</time>
   <energy>
    <i name="e_fr_energy">     -0.48667436 </i>
    <i name="e_wo_entrp">     -0.48667436 </i>
    <i name="e_0_energy">     -0.48667436 </i>
   </energy>
  </scstep>
  <scstep>
   <time name="total">    1.14    0.67</time>
   <energy>
    <i name="e_fr_energy">     -0.48667436 </i>
    <i name="e_wo_entrp">     -0.48667436 </i>
    <i name="e_0_energy">     -0.48667436 </i>
   </energy>
  </scstep>
  <scstep>
   <time name="total">    1.12    0.65</time>
   <energy>
    <i name="e_fr_energy">     -0.48667437 </i>
    <i name="e_wo_entrp">     -0.48667437 </i>
    <i name="e_0_energy">     -0.48667437 </i>
   </energy>
  </scstep>
  <scstep>
   <time name="total">    1.11    0.64</time>
   <energy>
    <i name="e_fr_energy">     -0.48667437 </i>
    <i name="e_wo_entrp">     -0.48667437 </i>
    <i name="e_0_energy">     -0.48667437 </i>
   </energy>
  </scstep>
  <scstep>
   <time name="total">    1.19    0.72</time>
   <energy>
    <i name="e_fr_energy">     -0.48794103 </i>
    <i name="e_wo_entrp">     -0.48794103 </i>
    <i name="e_0_energy">     -0.48794103 </i>
   </energy>
  </scstep>
  <scstep>
   <time name="total">    1.18    0.71</time>
   <energy>
    <i name="e_fr_energy">     -0.49000802 </i>
    <i name="e_wo_entrp">     -0.49000802 </i>
    <i name="e_0_energy">     -0.49000802 </i>
   </energy>
  </scstep>
  <scstep>
   <time name="total">    1.18    0.71</time>
   <energy>
    <i name="e_fr_energy">     -0.49019930 </i>
    <i name="e_wo_entrp">     -0.49019930 </i>
    <i name="e_0_energy">     -0.49019930 </i>
   </energy>
  </scstep>
  <scstep>
   <time name="total">    1.19    0.72</time>
   <energy>
    <i name="e_fr_energy">     -0.49020824 </i>
    <i name="e_wo_entrp">     -0.49020824 </i>
    <i name="e_0_energy">     -0.49020824 </i>
   </energy>
  </scstep>
  <scstep>
   <time name="total">    1.18    0.72</time>
   <energy>
    <i name="e_fr_energy">     -0.49020854 </i>
    <i name="e_wo_entrp">     -0.49020854 </i>
    <i name="e_0_energy">     -0.49020854 </i>
   </energy>
  </scstep>
  <scstep>
   <time name="total">    1.16    0.69</time>
   <energy>
    <i name="e_fr_energy">     -0.49020857 </i>
    <i name="e_wo_entrp">     -0.49020857 </i>
    <i name="e_0_energy">     -0.49020857 </i>
   </energy>
  </scstep>
  <scstep>
   <time name="total">    1.13    0.66</time>
   <energy>
    <i name="e_fr_energy">     -0.49020857 </i>
    <i name="e_wo_entrp">     -0.49020857 </i>
    <i name="e_0_energy">     -0.49020857 </i>
   </energy>
  </scstep>
  <scstep>
   <time name="total">    1.11    0.64</time>
   <energy>
    <i name="e_fr_energy">     -0.49020857 </i>
    <i name="e_wo_entrp">     -0.49020857 </i>
    <i name="e_0_energy">     -0.49020857 </i>
   </energy>
  </scstep>
  <scstep>
   <time name="total">    1.17    0.65</time>
   <energy>
    <i name="e_fr_energy">     -0.49020857 </i>
    <i name="e_wo_entrp">     -0.49020857 </i>
    <i name="e_0_energy">     -0.49020857 </i>
   </energy>
  </scstep>
  <scstep>
   <time name="total">    1.11    0.64</time>
   <energy>
    <i name="e_fr_energy">     -0.49020857 </i>
    <i name="e_wo_entrp">     -0.49020857 </i>
    <i name="e_0_energy">     -0.49020857 </i>
   </energy>
  </scstep>
  <varray name="dielectric_ipa" >
   <v>       2.59090801       0.00000000       0.00000000 </v>
   <v>       0.00000000       2.59090801       0.00000000 </v>
   <v>       0.00000000       0.00000000       2.60495590 </v>
  </varray>
  <kpoints>
   <generation param="Gamma">
    <v type="int" name="divisions">       4        4        4 </v>
    <v name="usershift">      0.00000000       0.00000000       0.00000000 </v>
    <v name="genvec1">      0.25000000       0.00000000       0.00000000 </v>
    <v name="genvec2">      0.00000000       0.25000000       0.00000000 </v>
    <v name="genvec3">      0.00000000       0.00000000       0.25000000 </v>
    <v name="shift">      0.00000000       0.00000000       0.00000000 </v>
   </generation>
   <varray name="kpointlist" >
    <v>       0.00000000       0.00000000       0.00000000 </v>
    <v>       0.25000000       0.00000000       0.00000000 </v>
    <v>       0.00000000       0.25000000       0.00000000 </v>
    <v>       0.50000000       0.00000000       0.00000000 </v>
    <v>       0.00000000       0.50000000       0.00000000 </v>
    <v>       0.25000000       0.25000000       0.00000000 </v>
    <v>       0.50000000       0.25000000       0.00000000 </v>
    <v>       0.00000000       0.00000000       0.25000000 </v>
    <v>       0.25000000       0.00000000       0.25000000 </v>
    <v>       0.00000000       0.25000000       0.25000000 </v>
    <v>      -0.25000000       0.00000000       0.25000000 </v>
    <v>       0.00000000      -0.25000000       0.25000000 </v>
    <v>       0.50000000       0.00000000       0.25000000 </v>
    <v>       0.00000000       0.50000000       0.25000000 </v>
    <v>       0.25000000       0.25000000       0.25000000 </v>
    <v>       0.50000000       0.25000000       0.25000000 </v>
    <v>      -0.25000000      -0.25000000       0.25000000 </v>
    <v>       0.00000000       0.00000000       0.50000000 </v>
    <v>       0.25000000       0.00000000       0.50000000 </v>
    <v>       0.00000000       0.25000000       0.50000000 </v>
    <v>       0.50000000       0.00000000       0.50000000 </v>
    <v>       0.00000000       0.50000000       0.50000000 </v>
    <v>       0.25000000       0.25000000       0.50000000 </v>
    <v>       0.50000000       0.25000000       0.50000000 </v>
   </varray>
   <varray name="weights" >
    <v>       0.01562500 </v>
    <v>       0.06250000 </v>
    <v>       0.03125000 </v>
    <v>       0.03125000 </v>
    <v>       0.01562500 </v>
    <v>       0.06250000 </v>
    <v>       0.03125000 </v>
    <v>       0.03125000 </v>
    <v>       0.06250000 </v>
    <v>       0.03125000 </v>
    <v>       0.06250000 </v>
    <v>       0.03125000 </v>
    <v>       0.06250000 </v>
    <v>       0.03125000 </v>
    <v>       0.06250000 </v>
    <v>       0.06250000 </v>
    <v>       0.06250000 </v>
    <v>       0.01562500 </v>
    <v>       0.06250000 </v>
    <v>       0.03125000 </v>
    <v>       0.03125000 </v>
    <v>       0.01562500 </v>
    <v>       0.06250000 </v>
    <v>       0.03125000 </v>
   </varray>
  </kpoints>
  <scstep>
   <time name="total">    1.71    1.24</time>
   <energy>
    <i name="e_fr_energy">     -0.48346528 </i>
    <i name="e_wo_entrp">     -0.48346528 </i>
    <i name="e_0_energy">     -0.48346528 </i>
   </energy>
  </scstep>
  <scstep>
   <time name="total">    1.77    1.28</time>
   <energy>
    <i name="e_fr_energy">     -0.48572176 </i>
    <i name="e_wo_entrp">     -0.48572176 </i>
    <i name="e_0_energy">     -0.48572176 </i>
   </energy>
  </scstep>
  <scstep>
   <time name="total">    1.78    1.29</time>
   <energy>
    <i name="e_fr_energy">     -0.46517284 </i>
    <i name="e_wo_entrp">     -0.46517284 </i>
    <i name="e_0_energy">     -0.46517284 </i>
   </energy>
  </scstep>
  <scstep>
   <time name="total">    1.79    1.29</time>
   <energy>
    <i name="e_fr_energy">     -0.47623455 </i>
    <i name="e_wo_entrp">     -0.47623455 </i>
    <i name="e_0_energy">     -0.47623455 </i>
   </energy>
  </scstep>
  <scstep>
   <time name="total">    1.77    1.28</time>
   <energy>
    <i name="e_fr_energy">     -0.49404122 </i>
    <i name="e_wo_entrp">     -0.49404122 </i>
    <i name="e_0_energy">     -0.49404122 </i>
   </energy>
  </scstep>
  <scstep>
   <time name="total">    1.75    1.26</time>
   <energy>
    <i name="e_fr_energy">     -0.49694931 </i>
    <i name="e_wo_entrp">     -0.49694931 </i>
    <i name="e_0_energy">     -0.49694931 </i>
   </energy>
  </scstep>
  <scstep>
   <time name="total">    1.77    1.29</time>
   <energy>
    <i name="e_fr_energy">     -0.49720027 </i>
    <i name="e_wo_entrp">     -0.49720027 </i>
    <i name="e_0_energy">     -0.49720027 </i>
   </energy>
  </scstep>
  <scstep>
   <time name="total">    1.76    1.28</time>
   <energy>
    <i name="e_fr_energy">     -0.49743327 </i>
    <i name="e_wo_entrp">     -0.49743327 </i>
    <i name="e_0_energy">     -0.49743327 </i>
   </energy>
  </scstep>
  <scstep>
   <time name="total">    1.77    1.29</time>
   <energy>
    <i name="e_fr_energy">     -0.49749311 </i>
    <i name="e_wo_entrp">     -0.49749311 </i>
    <i name="e_0_energy">     -0.49749311 </i>
   </energy>
  </scstep>
  <scstep>
   <time name="total">    1.78    1.29</time>
   <energy>
    <i name="e_fr_energy">     -0.49748979 </i>
    <i name="e_wo_entrp">     -0.49748979 </i>
    <i name="e_0_energy">     -0.49748979 </i>
   </energy>
  </scstep>
  <scstep>
   <time name="total">    1.78    1.29</time>
   <energy>
    <i name="e_fr_energy">     -0.49749018 </i>
    <i name="e_wo_entrp">     -0.49749018 </i>
    <i name="e_0_energy">     -0.49749018 </i>
   </energy>
  </scstep>
  <scstep>
   <time name="total">    1.74    1.25</time>
   <energy>
    <i name="e_fr_energy">     -0.49749021 </i>
    <i name="e_wo_entrp">     -0.49749021 </i>
    <i name="e_0_energy">     -0.49749021 </i>
   </energy>
  </scstep>
  <scstep>
   <time name="total">    1.74    1.25</time>
   <energy>
    <i name="e_fr_energy">     -0.49749023 </i>
    <i name="e_wo_entrp">     -0.49749023 </i>
    <i name="e_0_energy">     -0.49749023 </i>
   </energy>
  </scstep>
  <scstep>
   <time name="total">    1.75    1.26</time>
   <energy>
    <i name="e_fr_energy">     -0.49749010 </i>
    <i name="e_wo_entrp">     -0.49749010 </i>
    <i name="e_0_energy">     -0.49749010 </i>
   </energy>
  </scstep>
  <kpoints>
   <generation param="Gamma">
    <v type="int" name="divisions">       4        4        4 </v>
    <v name="usershift">      0.00000000       0.00000000       0.00000000 </v>
    <v name="genvec1">      0.25000000       0.00000000       0.00000000 </v>
    <v name="genvec2">      0.00000000       0.25000000       0.00000000 </v>
    <v name="genvec3">      0.00000000       0.00000000       0.25000000 </v>
    <v name="shift">      0.00000000       0.00000000       0.00000000 </v>
   </generation>
   <varray name="kpointlist" >
    <v>       0.00000000       0.00000000       0.00000000 </v>
    <v>       0.25000000       0.00000000       0.00000000 </v>
    <v>       0.00000000       0.25000000       0.00000000 </v>
    <v>      -0.25000000       0.25000000       0.00000000 </v>
    <v>       0.50000000       0.00000000       0.00000000 </v>
    <v>       0.00000000       0.50000000       0.00000000 </v>
    <v>       0.50000000       0.50000000       0.00000000 </v>
    <v>       0.25000000       0.25000000       0.00000000 </v>
    <v>      -0.25000000       0.50000000       0.00000000 </v>
    <v>       0.50000000       0.25000000       0.00000000 </v>
    <v>       0.00000000       0.00000000       0.25000000 </v>
    <v>       0.25000000       0.00000000       0.25000000 </v>
    <v>       0.00000000       0.25000000       0.25000000 </v>
    <v>      -0.25000000       0.25000000       0.25000000 </v>
    <v>      -0.25000000       0.00000000       0.25000000 </v>
    <v>       0.00000000      -0.25000000       0.25000000 </v>
    <v>       0.25000000      -0.25000000       0.25000000 </v>
    <v>       0.50000000       0.00000000       0.25000000 </v>
    <v>       0.00000000       0.50000000       0.25000000 </v>
    <v>       0.50000000       0.50000000       0.25000000 </v>
    <v>       0.25000000       0.25000000       0.25000000 </v>
    <v>      -0.25000000       0.50000000       0.25000000 </v>
    <v>       0.50000000       0.25000000       0.25000000 </v>
    <v>      -0.25000000      -0.25000000       0.25000000 </v>
    <v>       0.25000000       0.50000000       0.25000000 </v>
    <v>       0.50000000      -0.25000000       0.25000000 </v>
    <v>       0.00000000       0.00000000       0.50000000 </v>
    <v>       0.25000000       0.00000000       0.50000000 </v>
    <v>       0.00000000       0.25000000       0.50000000 </v>
    <v>      -0.25000000       0.25000000       0.50000000 </v>
    <v>       0.50000000       0.00000000       0.50000000 </v>
    <v>       0.00000000       0.50000000       0.50000000 </v>
    <v>       0.50000000       0.50000000       0.50000000 </v>
    <v>       0.25000000       0.25000000       0.50000000 </v>
    <v>      -0.25000000       0.50000000       0.50000000 </v>
    <v>       0.50000000       0.25000000       0.50000000 </v>
   </varray>
   <varray name="weights" >
    <v>       0.01562500 </v>
    <v>       0.03125000 </v>
    <v>       0.03125000 </v>
    <v>       0.03125000 </v>
    <v>       0.01562500 </v>
    <v>       0.01562500 </v>
    <v>       0.01562500 </v>
    <v>       0.03125000 </v>
    <v>       0.03125000 </v>
    <v>       0.03125000 </v>
    <v>       0.03125000 </v>
    <v>       0.03125000 </v>
    <v>       0.03125000 </v>
    <v>       0.03125000 </v>
    <v>       0.03125000 </v>
    <v>       0.03125000 </v>
    <v>       0.03125000 </v>
    <v>       0.03125000 </v>
    <v>       0.03125000 </v>
    <v>       0.03125000 </v>
    <v>       0.03125000 </v>
    <v>       0.03125000 </v>
    <v>       0.03125000 </v>
    <v>       0.03125000 </v>
    <v>       0.03125000 </v>
    <v>       0.03125000 </v>
    <v>       0.01562500 </v>
    <v>       0.03125000 </v>
    <v>       0.03125000 </v>
    <v>       0.03125000 </v>
    <v>       0.01562500 </v>
    <v>       0.01562500 </v>
    <v>       0.01562500 </v>
    <v>       0.03125000 </v>
    <v>       0.03125000 </v>
    <v>       0.03125000 </v>
   </varray>
  </kpoints>
  <scstep>
   <time name="total">    2.24    1.78</time>
   <energy>
    <i name="e_fr_energy">     -0.48350711 </i>
    <i name="e_wo_entrp">     -0.48350711 </i>
    <i name="e_0_energy">     -0.48350711 </i>
   </energy>
  </scstep>
  <scstep>
   <time name="total">    2.32    1.85</time>
   <energy>
    <i name="e_fr_energy">     -0.48571889 </i>
    <i name="e_wo_entrp">     -0.48571889 </i>
    <i name="e_0_energy">     -0.48571889 </i>
   </energy>
  </scstep>
  <scstep>
   <time name="total">    2.33    1.85</time>
   <energy>
    <i name="e_fr_energy">     -0.46541294 </i>
    <i name="e_wo_entrp">     -0.46541294 </i>
    <i name="e_0_energy">     -0.46541294 </i>
   </energy>
  </scstep>
  <scstep>
   <time name="total">    2.34    1.86</time>
   <energy>
    <i name="e_fr_energy">     -0.47626373 </i>
    <i name="e_wo_entrp">     -0.47626373 </i>
    <i name="e_0_energy">     -0.47626373 </i>
   </energy>
  </scstep>
  <scstep>
   <time name="total">    2.33    1.85</time>
   <energy>
    <i name="e_fr_energy">     -0.49405069 </i>
    <i name="e_wo_entrp">     -0.49405069 </i>
    <i name="e_0_energy">     -0.49405069 </i>
   </energy>
  </scstep>
  <scstep>
   <time name="total">    2.31    1.83</time>
   <energy>
    <i name="e_fr_energy">     -0.49697094 </i>
    <i name="e_wo_entrp">     -0.49697094 </i>
    <i name="e_0_energy">     -0.49697094 </i>
   </energy>
  </scstep>
  <scstep>
   <time name="total">    2.37    1.88</time>
   <energy>
    <i name="e_fr_energy">     -0.49721367 </i>
    <i name="e_wo_entrp">     -0.49721367 </i>
    <i name="e_0_energy">     -0.49721367 </i>
   </energy>
  </scstep>
  <scstep>
   <time name="total">    2.36    1.87</time>
   <energy>
    <i name="e_fr_energy">     -0.49744579 </i>
    <i name="e_wo_entrp">     -0.49744579 </i>
    <i name="e_0_energy">     -0.49744579 </i>
   </energy>
  </scstep>
  <scstep>
   <time name="total">    2.36    1.88</time>
   <energy>
    <i name="e_fr_energy">     -0.49751080 </i>
    <i name="e_wo_entrp">     -0.49751080 </i>
    <i name="e_0_energy">     -0.49751080 </i>
   </energy>
  </scstep>
  <scstep>
   <time name="total">    2.37    1.89</time>
   <energy>
    <i name="e_fr_energy">     -0.49750553 </i>
    <i name="e_wo_entrp">     -0.49750553 </i>
    <i name="e_0_energy">     -0.49750553 </i>
   </energy>
  </scstep>
  <scstep>
   <time name="total">    2.37    1.89</time>
   <energy>
    <i name="e_fr_energy">     -0.49750677 </i>
    <i name="e_wo_entrp">     -0.49750677 </i>
    <i name="e_0_energy">     -0.49750677 </i>
   </energy>
  </scstep>
  <scstep>
   <time name="total">    2.30    1.82</time>
   <energy>
    <i name="e_fr_energy">     -0.49750684 </i>
    <i name="e_wo_entrp">     -0.49750684 </i>
    <i name="e_0_energy">     -0.49750684 </i>
   </energy>
  </scstep>
  <scstep>
   <time name="total">    2.31    1.83</time>
   <energy>
    <i name="e_fr_energy">     -0.49750686 </i>
    <i name="e_wo_entrp">     -0.49750686 </i>
    <i name="e_0_energy">     -0.49750686 </i>
   </energy>
  </scstep>
  <scstep>
   <time name="total">    2.33    1.85</time>
   <energy>
    <i name="e_fr_energy">     -0.49750676 </i>
    <i name="e_wo_entrp">     -0.49750676 </i>
    <i name="e_0_energy">     -0.49750676 </i>
   </energy>
  </scstep>
  <kpoints>
   <generation param="Gamma">
    <v type="int" name="divisions">       4        4        4 </v>
    <v name="usershift">      0.00000000       0.00000000       0.00000000 </v>
    <v name="genvec1">      0.25000000       0.00000000       0.00000000 </v>
    <v name="genvec2">      0.00000000       0.25000000       0.00000000 </v>
    <v name="genvec3">      0.00000000       0.00000000       0.25000000 </v>
    <v name="shift">      0.00000000       0.00000000       0.00000000 </v>
   </generation>
   <varray name="kpointlist" >
    <v>       0.00000000       0.00000000       0.00000000 </v>
    <v>       0.25000000       0.00000000       0.00000000 </v>
    <v>       0.50000000       0.00000000       0.00000000 </v>
    <v>       0.25000000       0.25000000       0.00000000 </v>
    <v>       0.00000000       0.00000000       0.25000000 </v>
    <v>       0.25000000       0.00000000       0.25000000 </v>
    <v>       0.00000000       0.25000000       0.25000000 </v>
    <v>       0.50000000       0.00000000       0.25000000 </v>
    <v>       0.25000000       0.25000000       0.25000000 </v>
    <v>      -0.25000000       0.50000000       0.25000000 </v>
    <v>       0.00000000       0.00000000       0.50000000 </v>
    <v>       0.25000000       0.00000000       0.50000000 </v>
    <v>       0.50000000       0.00000000       0.50000000 </v>
    <v>       0.25000000       0.25000000       0.50000000 </v>
   </varray>
   <varray name="weights" >
    <v>       0.01562500 </v>
    <v>       0.09375000 </v>
    <v>       0.04687500 </v>
    <v>       0.09375000 </v>
    <v>       0.03125000 </v>
    <v>       0.09375000 </v>
    <v>       0.09375000 </v>
    <v>       0.09375000 </v>
    <v>       0.09375000 </v>
    <v>       0.09375000 </v>
    <v>       0.01562500 </v>
    <v>       0.09375000 </v>
    <v>       0.04687500 </v>
    <v>       0.09375000 </v>
   </varray>
  </kpoints>
  <scstep>
   <time name="total">    1.24    0.76</time>
   <energy>
    <i name="e_fr_energy">     -0.48794104 </i>
    <i name="e_wo_entrp">     -0.48794104 </i>
    <i name="e_0_energy">     -0.48794104 </i>
   </energy>
  </scstep>
  <scstep>
   <time name="total">    1.28    0.79</time>
   <energy>
    <i name="e_fr_energy">     -0.49000801 </i>
    <i name="e_wo_entrp">     -0.49000801 </i>
    <i name="e_0_energy">     -0.49000801 </i>
   </energy>
  </scstep>
  <scstep>
   <time name="total">    1.28    0.80</time>
   <energy>
    <i name="e_fr_energy">     -0.47476331 </i>
    <i name="e_wo_entrp">     -0.47476331 </i>
    <i name="e_0_energy">     -0.47476331 </i>
   </energy>
  </scstep>
  <scstep>
   <time name="total">    1.29    0.80</time>
   <energy>
    <i name="e_fr_energy">     -0.48794978 </i>
    <i name="e_wo_entrp">     -0.48794978 </i>
    <i name="e_0_energy">     -0.48794978 </i>
   </energy>
  </scstep>
  <scstep>
   <time name="total">    1.28    0.79</time>
   <energy>
    <i name="e_fr_energy">     -0.50423707 </i>
    <i name="e_wo_entrp">     -0.50423707 </i>
    <i name="e_0_energy">     -0.50423707 </i>
   </energy>
  </scstep>
  <scstep>
   <time name="total">    1.26    0.78</time>
   <energy>
    <i name="e_fr_energy">     -0.50707759 </i>
    <i name="e_wo_entrp">     -0.50707759 </i>
    <i name="e_0_energy">     -0.50707759 </i>
   </energy>
  </scstep>
  <scstep>
   <time name="total">    1.29    0.80</time>
   <energy>
    <i name="e_fr_energy">     -0.50732076 </i>
    <i name="e_wo_entrp">     -0.50732076 </i>
    <i name="e_0_energy">     -0.50732076 </i>
   </energy>
  </scstep>
  <scstep>
   <time name="total">    1.28    0.80</time>
   <energy>
    <i name="e_fr_energy">     -0.50758653 </i>
    <i name="e_wo_entrp">     -0.50758653 </i>
    <i name="e_0_energy">     -0.50758653 </i>
   </energy>
  </scstep>
  <scstep>
   <time name="total">    1.30    0.81</time>
   <energy>
    <i name="e_fr_energy">     -0.50760996 </i>
    <i name="e_wo_entrp">     -0.50760996 </i>
    <i name="e_0_energy">     -0.50760996 </i>
   </energy>
  </scstep>
  <scstep>
   <time name="total">    1.30    0.81</time>
   <energy>
    <i name="e_fr_energy">     -0.50761112 </i>
    <i name="e_wo_entrp">     -0.50761112 </i>
    <i name="e_0_energy">     -0.50761112 </i>
   </energy>
  </scstep>
  <scstep>
   <time name="total">    1.30    0.81</time>
   <energy>
    <i name="e_fr_energy">     -0.50760992 </i>
    <i name="e_wo_entrp">     -0.50760992 </i>
    <i name="e_0_energy">     -0.50760992 </i>
   </energy>
  </scstep>
  <scstep>
   <time name="total">    1.26    0.77</time>
   <energy>
    <i name="e_fr_energy">     -0.50761031 </i>
    <i name="e_wo_entrp">     -0.50761031 </i>
    <i name="e_0_energy">     -0.50761031 </i>
   </energy>
  </scstep>
  <scstep>
   <time name="total">    1.28    0.79</time>
   <energy>
    <i name="e_fr_energy">     -0.50761018 </i>
    <i name="e_wo_entrp">     -0.50761018 </i>
    <i name="e_0_energy">     -0.50761018 </i>
   </energy>
  </scstep>
  <scstep>
   <time name="total">    1.26    0.77</time>
   <energy>
    <i name="e_fr_energy">     -0.50761016 </i>
    <i name="e_wo_entrp">     -0.50761016 </i>
    <i name="e_0_energy">     -0.50761016 </i>
   </energy>
  </scstep>
  <kpoints>
   <generation param="Gamma">
    <v type="int" name="divisions">       4        4        4 </v>
    <v name="usershift">      0.00000000       0.00000000       0.00000000 </v>
    <v name="genvec1">      0.25000000       0.00000000       0.00000000 </v>
    <v name="genvec2">      0.00000000       0.25000000       0.00000000 </v>
    <v name="genvec3">      0.00000000       0.00000000       0.25000000 </v>
    <v name="shift">      0.00000000       0.00000000       0.00000000 </v>
   </generation>
   <varray name="kpointlist" >
    <v>       0.00000000       0.00000000       0.00000000 </v>
    <v>       0.25000000       0.00000000       0.00000000 </v>
    <v>       0.50000000       0.00000000       0.00000000 </v>
    <v>       0.25000000       0.25000000       0.00000000 </v>
    <v>       0.00000000       0.00000000       0.25000000 </v>
    <v>       0.25000000       0.00000000       0.25000000 </v>
    <v>       0.00000000       0.25000000       0.25000000 </v>
    <v>       0.50000000       0.00000000       0.25000000 </v>
    <v>       0.25000000       0.25000000       0.25000000 </v>
    <v>       0.00000000       0.00000000       0.50000000 </v>
    <v>       0.25000000       0.00000000       0.50000000 </v>
    <v>       0.50000000       0.00000000       0.50000000 </v>
    <v>       0.25000000       0.25000000       0.50000000 </v>
   </varray>
   <varray name="weights" >
    <v>       0.01562500 </v>
    <v>       0.09375000 </v>
    <v>       0.04687500 </v>
    <v>       0.09375000 </v>
    <v>       0.03125000 </v>
    <v>       0.09375000 </v>
    <v>       0.09375000 </v>
    <v>       0.09375000 </v>
    <v>       0.18750000 </v>
    <v>       0.01562500 </v>
    <v>       0.09375000 </v>
    <v>       0.04687500 </v>
    <v>       0.09375000 </v>
   </varray>
  </kpoints>
  <varray name="dielectric_dft" >
   <v>       2.48179897       0.00000000       0.00000000 </v>
   <v>       0.00000000       2.48179897       0.00000000 </v>
   <v>       0.00000000       0.00000000       2.51436494 </v>
  </varray>
  <varray name="epsilon" >
   <v>       2.48179897       0.00000000       0.00000000 </v>
   <v>       0.00000000       2.48179897       0.00000000 </v>
   <v>       0.00000000       0.00000000       2.51436494 </v>
  </varray>
  <kpoints>
   <generation param="Gamma">
    <v type="int" name="divisions">       4        4        4 </v>
    <v name="usershift">      0.00000000       0.00000000       0.00000000 </v>
    <v name="genvec1">      0.25000000       0.00000000       0.00000000 </v>
    <v name="genvec2">      0.00000000       0.25000000       0.00000000 </v>
    <v name="genvec3">      0.00000000       0.00000000       0.25000000 </v>
    <v name="shift">      0.00000000       0.00000000       0.00000000 </v>
   </generation>
   <varray name="kpointlist" >
    <v>       0.00000000       0.00000000       0.00000000 </v>
    <v>       0.25000000       0.00000000       0.00000000 </v>
    <v>       0.50000000       0.00000000       0.00000000 </v>
    <v>       0.25000000       0.25000000       0.00000000 </v>
    <v>       0.00000000       0.00000000       0.25000000 </v>
    <v>       0.25000000       0.00000000       0.25000000 </v>
    <v>       0.00000000       0.25000000       0.25000000 </v>
    <v>       0.50000000       0.00000000       0.25000000 </v>
    <v>       0.25000000       0.25000000       0.25000000 </v>
    <v>       0.00000000       0.00000000       0.50000000 </v>
    <v>       0.25000000       0.00000000       0.50000000 </v>
    <v>       0.50000000       0.00000000       0.50000000 </v>
    <v>       0.25000000       0.25000000       0.50000000 </v>
   </varray>
   <varray name="weights" >
    <v>       0.01562500 </v>
    <v>       0.09375000 </v>
    <v>       0.04687500 </v>
    <v>       0.09375000 </v>
    <v>       0.03125000 </v>
    <v>       0.09375000 </v>
    <v>       0.09375000 </v>
    <v>       0.09375000 </v>
    <v>       0.18750000 </v>
    <v>       0.01562500 </v>
    <v>       0.09375000 </v>
    <v>       0.04687500 </v>
    <v>       0.09375000 </v>
   </varray>
  </kpoints>
  <array name="born_charges" >
   <dimension dim="1">ion</dimension>
   <set>
    <v>       2.98113087       0.00000000      -0.00000000 </v>
    <v>       0.00000000       3.61945165      -0.32172923 </v>
    <v>       0.00000000       0.27840769       3.42493115 </v>
   </set>
   <set>
    <v>       3.45987145       0.27640101       0.27862568 </v>
    <v>       0.27640101       3.14071106       0.16086461 </v>
    <v>      -0.24110813      -0.13920385       3.42493115 </v>
   </set>
   <set>
    <v>       3.45987145      -0.27640101      -0.27862568 </v>
    <v>      -0.27640101       3.14071106       0.16086461 </v>
    <v>       0.24110813      -0.13920385       3.42493115 </v>
   </set>
   <set>
    <v>      -1.31125763      -0.49323602      -0.31025165 </v>
    <v>      -0.43635224      -1.98903363      -0.67873170 </v>
    <v>      -0.24341763      -0.72118774      -1.71246558 </v>
   </set>
   <set>
    <v>      -2.22211315      -0.08953044       0.74292472 </v>
    <v>      -0.03264666      -1.07817811       0.07068004 </v>
    <v>       0.74627572       0.14978802      -1.71246558 </v>
   </set>
   <set>
    <v>      -1.41706611       0.49744079      -0.43267307 </v>
    <v>       0.55432457      -1.88322515       0.60805166 </v>
    <v>      -0.50285809       0.57139972      -1.71246558 </v>
   </set>
   <set>
    <v>      -1.31125763       0.49323602       0.31025165 </v>
    <v>       0.43635224      -1.98903363      -0.67873170 </v>
    <v>       0.24341763      -0.72118774      -1.71246558 </v>
   </set>
   <set>
    <v>      -2.22211315       0.08953044      -0.74292472 </v>
    <v>       0.03264666      -1.07817811       0.07068004 </v>
    <v>      -0.74627572       0.14978802      -1.71246558 </v>
   </set>
   <set>
    <v>      -1.41706611      -0.49744079       0.43267307 </v>
    <v>      -0.55432457      -1.88322515       0.60805166 </v>
    <v>       0.50285809       0.57139972      -1.71246558 </v>
   </set>
  </array>
  <time name="totalsc">  209.68  121.73</time>
  <eigenvalues>
   <array>
    <dimension dim="1">band</dimension>
    <dimension dim="2">kpoint</dimension>
    <dimension dim="3">spin</dimension>
    <field>eigene</field>
    <field>occ</field>
    <set>
     <set comment="spin 1">
      <set comment="kpoint 1">
       <r>  -18.1693    1.0000 </r>
       <r>  -16.6179    1.0000 </r>
       <r>  -16.6179    1.0000 </r>
       <r>  -15.9486    1.0000 </r>
       <r>  -15.9416    1.0000 </r>
       <r>  -15.9416    1.0000 </r>
       <r>   -6.8753    1.0000 </r>
       <r>   -6.8753    1.0000 </r>
       <r>   -4.1432    1.0000 </r>
       <r>   -4.0644    1.0000 </r>
       <r>   -3.9072    1.0000 </r>
       <r>   -3.9072    1.0000 </r>
       <r>   -1.6836    1.0000 </r>
       <r>   -1.6836    1.0000 </r>
       <r>   -1.3752    1.0000 </r>
       <r>   -1.1481    1.0000 </r>
       <r>   -0.1524    1.0000 </r>
       <r>   -0.1524    1.0000 </r>
       <r>   -0.0964    1.0000 </r>
       <r>    0.2595    1.0000 </r>
       <r>    0.2595    1.0000 </r>
       <r>    0.4574    1.0000 </r>
       <r>    1.0045    1.0000 </r>
       <r>    1.0045    1.0000 </r>
       <r>    7.3204    0.0000 </r>
       <r>   10.6069    0.0000 </r>
       <r>   10.6069    0.0000 </r>
       <r>   11.2365    0.0000 </r>
       <r>   11.2365    0.0000 </r>
      </set>
      <set comment="kpoint 2">
       <r>  -17.9853    1.0000 </r>
       <r>  -16.8174    1.0000 </r>
       <r>  -16.5918    1.0000 </r>
       <r>  -16.0169    1.0000 </r>
       <r>  -15.9746    1.0000 </r>
       <r>  -15.9406    1.0000 </r>
       <r>   -6.9538    1.0000 </r>
       <r>   -6.5060    1.0000 </r>
       <r>   -4.2143    1.0000 </r>
       <r>   -4.1513    1.0000 </r>
       <r>   -4.0317    1.0000 </r>
       <r>   -3.6145    1.0000 </r>
       <r>   -1.8714    1.0000 </r>
       <r>   -1.5548    1.0000 </r>
       <r>   -1.3477    1.0000 </r>
       <r>   -0.8948    1.0000 </r>
       <r>   -0.6949    1.0000 </r>
       <r>   -0.2372    1.0000 </r>
       <r>   -0.1584    1.0000 </r>
       <r>    0.1788    1.0000 </r>
       <r>    0.2767    1.0000 </r>
       <r>    0.4210    1.0000 </r>
       <r>    1.0539    1.0000 </r>
       <r>    1.1418    1.0000 </r>
       <r>    8.2301    0.0000 </r>
       <r>   10.6667    0.0000 </r>
       <r>   10.7183    0.0000 </r>
       <r>   11.2062    0.0000 </r>
       <r>   11.4808    0.0000 </r>
      </set>
      <set comment="kpoint 3">
       <r>  -17.6622    1.0000 </r>
       <r>  -17.1797    1.0000 </r>
       <r>  -16.5634    1.0000 </r>
       <r>  -16.0431    1.0000 </r>
       <r>  -15.9990    1.0000 </r>
       <r>  -15.9667    1.0000 </r>
       <r>   -7.0278    1.0000 </r>
       <r>   -6.0414    1.0000 </r>
       <r>   -4.5523    1.0000 </r>
       <r>   -4.0935    1.0000 </r>
       <r>   -4.0879    1.0000 </r>
       <r>   -3.2768    1.0000 </r>
       <r>   -1.8232    1.0000 </r>
       <r>   -1.6222    1.0000 </r>
       <r>   -1.4329    1.0000 </r>
       <r>   -0.9988    1.0000 </r>
       <r>   -0.7916    1.0000 </r>
       <r>   -0.4784    1.0000 </r>
       <r>   -0.2868    1.0000 </r>
       <r>    0.1961    1.0000 </r>
       <r>    0.2833    1.0000 </r>
       <r>    0.5613    1.0000 </r>
       <r>    1.0151    1.0000 </r>
       <r>    1.2412    1.0000 </r>
       <r>    9.6312    0.0000 </r>
       <r>   10.3695    0.0000 </r>
       <r>   10.9616    0.0000 </r>
       <r>   10.9837    0.0000 </r>
       <r>   11.9994    0.0000 </r>
      </set>
      <set comment="kpoint 4">
       <r>  -17.6727    1.0000 </r>
       <r>  -17.1490    1.0000 </r>
       <r>  -16.5945    1.0000 </r>
       <r>  -16.0384    1.0000 </r>
       <r>  -15.9970    1.0000 </r>
       <r>  -15.9631    1.0000 </r>
       <r>   -7.0563    1.0000 </r>
       <r>   -5.9029    1.0000 </r>
       <r>   -4.8465    1.0000 </r>
       <r>   -4.0715    1.0000 </r>
       <r>   -3.9308    1.0000 </r>
       <r>   -3.2844    1.0000 </r>
       <r>   -1.7825    1.0000 </r>
       <r>   -1.6263    1.0000 </r>
       <r>   -1.4636    1.0000 </r>
       <r>   -0.8966    1.0000 </r>
       <r>   -0.8468    1.0000 </r>
       <r>   -0.4267    1.0000 </r>
       <r>   -0.2439    1.0000 </r>
       <r>   -0.0058    1.0000 </r>
       <r>    0.2540    1.0000 </r>
       <r>    0.6685    1.0000 </r>
       <r>    0.9807    1.0000 </r>
       <r>    1.2631    1.0000 </r>
       <r>    9.4724    0.0000 </r>
       <r>   10.7305    0.0000 </r>
       <r>   10.7694    0.0000 </r>
       <r>   11.4383    0.0000 </r>
       <r>   11.5748    0.0000 </r>
      </set>
      <set comment="kpoint 5">
       <r>  -18.0440    1.0000 </r>
       <r>  -17.1776    1.0000 </r>
       <r>  -16.1677    1.0000 </r>
       <r>  -15.9542    1.0000 </r>
       <r>  -15.9509    1.0000 </r>
       <r>  -15.9224    1.0000 </r>
       <r>   -7.6483    1.0000 </r>
       <r>   -5.8638    1.0000 </r>
       <r>   -4.3650    1.0000 </r>
       <r>   -4.1787    1.0000 </r>
       <r>   -4.1297    1.0000 </r>
       <r>   -3.5478    1.0000 </r>
       <r>   -1.7650    1.0000 </r>
       <r>   -1.4377    1.0000 </r>
       <r>   -1.3089    1.0000 </r>
       <r>   -0.9456    1.0000 </r>
       <r>   -0.4220    1.0000 </r>
       <r>   -0.2907    1.0000 </r>
       <r>   -0.1622    1.0000 </r>
       <r>   -0.1620    1.0000 </r>
       <r>    0.1756    1.0000 </r>
       <r>    0.6288    1.0000 </r>
       <r>    1.0945    1.0000 </r>
       <r>    1.1782    1.0000 </r>
       <r>    7.9330    0.0000 </r>
       <r>   10.4198    0.0000 </r>
       <r>   10.6265    0.0000 </r>
       <r>   10.6415    0.0000 </r>
       <r>   11.6511    0.0000 </r>
      </set>
      <set comment="kpoint 6">
       <r>  -17.8768    1.0000 </r>
       <r>  -17.1538    1.0000 </r>
       <r>  -16.3529    1.0000 </r>
       <r>  -16.0126    1.0000 </r>
       <r>  -15.9904    1.0000 </r>
       <r>  -15.9396    1.0000 </r>
       <r>   -7.3244    1.0000 </r>
       <r>   -5.9220    1.0000 </r>
       <r>   -4.6301    1.0000 </r>
       <r>   -4.0948    1.0000 </r>
       <r>   -3.8269    1.0000 </r>
       <r>   -3.6499    1.0000 </r>
       <r>   -1.9379    1.0000 </r>
       <r>   -1.4319    1.0000 </r>
       <r>   -1.3034    1.0000 </r>
       <r>   -0.9643    1.0000 </r>
       <r>   -0.6420    1.0000 </r>
       <r>   -0.3001    1.0000 </r>
       <r>   -0.1657    1.0000 </r>
       <r>    0.0587    1.0000 </r>
       <r>    0.3171    1.0000 </r>
       <r>    0.4880    1.0000 </r>
       <r>    1.0128    1.0000 </r>
       <r>    1.1507    1.0000 </r>
       <r>    8.7045    0.0000 </r>
       <r>   10.4475    0.0000 </r>
       <r>   10.7365    0.0000 </r>
       <r>   10.9599    0.0000 </r>
       <r>   11.6979    0.0000 </r>
      </set>
      <set comment="kpoint 7">
       <r>  -17.8796    1.0000 </r>
       <r>  -17.1403    1.0000 </r>
       <r>  -16.3842    1.0000 </r>
       <r>  -16.0132    1.0000 </r>
       <r>  -15.9587    1.0000 </r>
       <r>  -15.9496    1.0000 </r>
       <r>   -7.3266    1.0000 </r>
       <r>   -5.9270    1.0000 </r>
       <r>   -4.6307    1.0000 </r>
       <r>   -4.1178    1.0000 </r>
       <r>   -3.8535    1.0000 </r>
       <r>   -3.5655    1.0000 </r>
       <r>   -1.8909    1.0000 </r>
       <r>   -1.3885    1.0000 </r>
       <r>   -1.3595    1.0000 </r>
       <r>   -1.1085    1.0000 </r>
       <r>   -0.6924    1.0000 </r>
       <r>   -0.1996    1.0000 </r>
       <r>   -0.1025    1.0000 </r>
       <r>    0.0423    1.0000 </r>
       <r>    0.3866    1.0000 </r>
       <r>    0.4096    1.0000 </r>
       <r>    0.9065    1.0000 </r>
       <r>    1.2525    1.0000 </r>
       <r>    8.6672    0.0000 </r>
       <r>   10.5713    0.0000 </r>
       <r>   10.8833    0.0000 </r>
       <r>   11.0283    0.0000 </r>
       <r>   11.5538    0.0000 </r>
      </set>
      <set comment="kpoint 8">
       <r>  -17.6255    1.0000 </r>
       <r>  -17.1600    1.0000 </r>
       <r>  -16.6317    1.0000 </r>
       <r>  -16.0500    1.0000 </r>
       <r>  -16.0058    1.0000 </r>
       <r>  -15.9577    1.0000 </r>
       <r>   -6.9532    1.0000 </r>
       <r>   -5.9781    1.0000 </r>
       <r>   -4.8510    1.0000 </r>
       <r>   -4.0783    1.0000 </r>
       <r>   -3.7896    1.0000 </r>
       <r>   -3.4581    1.0000 </r>
       <r>   -1.8845    1.0000 </r>
       <r>   -1.7922    1.0000 </r>
       <r>   -1.2412    1.0000 </r>
       <r>   -1.0482    1.0000 </r>
       <r>   -0.5785    1.0000 </r>
       <r>   -0.4798    1.0000 </r>
       <r>   -0.1344    1.0000 </r>
       <r>    0.1307    1.0000 </r>
       <r>    0.3609    1.0000 </r>
       <r>    0.5984    1.0000 </r>
       <r>    0.8239    1.0000 </r>
       <r>    1.1742    1.0000 </r>
       <r>    9.9059    0.0000 </r>
       <r>   10.4287    0.0000 </r>
       <r>   10.8786    0.0000 </r>
       <r>   11.3036    0.0000 </r>
       <r>   11.7995    0.0000 </r>
      </set>
      <set comment="kpoint 9">
       <r>  -17.6274    1.0000 </r>
       <r>  -17.1605    1.0000 </r>
       <r>  -16.6235    1.0000 </r>
       <r>  -16.0408    1.0000 </r>
       <r>  -16.0169    1.0000 </r>
       <r>  -15.9630    1.0000 </r>
       <r>   -6.9617    1.0000 </r>
       <r>   -5.8769    1.0000 </r>
       <r>   -5.0194    1.0000 </r>
       <r>   -4.0421    1.0000 </r>
       <r>   -3.7618    1.0000 </r>
       <r>   -3.4721    1.0000 </r>
       <r>   -1.9191    1.0000 </r>
       <r>   -1.6266    1.0000 </r>
       <r>   -1.4065    1.0000 </r>
       <r>   -0.9242    1.0000 </r>
       <r>   -0.6611    1.0000 </r>
       <r>   -0.4508    1.0000 </r>
       <r>   -0.0596    1.0000 </r>
       <r>    0.0818    1.0000 </r>
       <r>    0.3186    1.0000 </r>
       <r>    0.6055    1.0000 </r>
       <r>    0.8650    1.0000 </r>
       <r>    1.1292    1.0000 </r>
       <r>    9.7384    0.0000 </r>
       <r>   10.6581    0.0000 </r>
       <r>   10.9897    0.0000 </r>
       <r>   11.3715    0.0000 </r>
       <r>   11.5171    0.0000 </r>
      </set>
      <set comment="kpoint 10">
       <r>  -17.6912    1.0000 </r>
       <r>  -17.6912    1.0000 </r>
       <r>  -15.9919    1.0000 </r>
       <r>  -15.9554    1.0000 </r>
       <r>  -15.9554    1.0000 </r>
       <r>  -15.9133    1.0000 </r>
       <r>   -7.9387    1.0000 </r>
       <r>   -4.9360    1.0000 </r>
       <r>   -4.9360    1.0000 </r>
       <r>   -4.2584    1.0000 </r>
[...]
       <r>    1.2162    1.0000 </r>
       <r>    9.3060    0.0000 </r>
       <r>    9.3060    0.0000 </r>
       <r>   10.4312    0.0000 </r>
       <r>   10.9940    0.0000 </r>
       <r>   10.9940    0.0000 </r>
      </set>
      <set comment="kpoint 11">
       <r>  -17.6398    1.0000 </r>
       <r>  -17.4993    1.0000 </r>
       <r>  -16.2473    1.0000 </r>
       <r>  -16.0251    1.0000 </r>
       <r>  -15.9720    1.0000 </r>
       <r>  -15.9421    1.0000 </r>
       <r>   -7.5131    1.0000 </r>
       <r>   -5.3516    1.0000 </r>
       <r>   -5.0105    1.0000 </r>
       <r>   -4.0938    1.0000 </r>
       <r>   -3.9698    1.0000 </r>
       <r>   -3.4521    1.0000 </r>
       <r>   -1.7478    1.0000 </r>
       <r>   -1.7288    1.0000 </r>
       <r>   -1.2071    1.0000 </r>
       <r>   -0.9364    1.0000 </r>
       <r>   -0.7518    1.0000 </r>
       <r>   -0.2534    1.0000 </r>
       <r>   -0.1556    1.0000 </r>
       <r>    0.0451    1.0000 </r>
       <r>    0.1856    1.0000 </r>
       <r>    0.7958    1.0000 </r>
       <r>    0.8301    1.0000 </r>
       <r>    1.1416    1.0000 </r>
       <r>    9.6730    0.0000 </r>
       <r>    9.8350    0.0000 </r>
       <r>   10.7201    0.0000 </r>
       <r>   11.0290    0.0000 </r>
       <r>   11.3864    0.0000 </r>
      </set>
      <set comment="kpoint 12">
       <r>  -17.5846    1.0000 </r>
       <r>  -17.1391    1.0000 </r>
       <r>  -16.7024    1.0000 </r>
       <r>  -16.0716    1.0000 </r>
       <r>  -15.9920    1.0000 </r>
       <r>  -15.9581    1.0000 </r>
       <r>   -6.8722    1.0000 </r>
       <r>   -5.9121    1.0000 </r>
       <r>   -5.0464    1.0000 </r>
       <r>   -3.9936    1.0000 </r>
       <r>   -3.7018    1.0000 </r>
       <r>   -3.6109    1.0000 </r>
       <r>   -1.9299    1.0000 </r>
       <r>   -1.9213    1.0000 </r>
       <r>   -1.1445    1.0000 </r>
       <r>   -0.8262    1.0000 </r>
       <r>   -0.7440    1.0000 </r>
       <r>   -0.2734    1.0000 </r>
       <r>    0.0235    1.0000 </r>
       <r>    0.1904    1.0000 </r>
       <r>    0.3983    1.0000 </r>
       <r>    0.4030    1.0000 </r>
       <r>    0.6994    1.0000 </r>
       <r>    1.1202    1.0000 </r>
       <r>   10.2228    0.0000 </r>
       <r>   10.7225    0.0000 </r>
       <r>   11.0087    0.0000 </r>
       <r>   11.1985    0.0000 </r>
       <r>   11.5416    0.0000 </r>
      </set>
      <set comment="kpoint 13">
       <r>  -17.5727    1.0000 </r>
       <r>  -17.1835    1.0000 </r>
       <r>  -16.6499    1.0000 </r>
       <r>  -16.0593    1.0000 </r>
       <r>  -15.9923    1.0000 </r>
       <r>  -15.9914    1.0000 </r>
       <r>   -6.8531    1.0000 </r>
       <r>   -5.8671    1.0000 </r>
       <r>   -5.1554    1.0000 </r>
       <r>   -3.8946    1.0000 </r>
       <r>   -3.7916    1.0000 </r>
       <r>   -3.6115    1.0000 </r>
       <r>   -1.9723    1.0000 </r>
       <r>   -1.7455    1.0000 </r>
       <r>   -1.2640    1.0000 </r>
       <r>   -0.8985    1.0000 </r>
       <r>   -0.6206    1.0000 </r>
       <r>   -0.4205    1.0000 </r>
       <r>    0.1497    1.0000 </r>
       <r>    0.2570    1.0000 </r>
       <r>    0.3283    1.0000 </r>
       <r>    0.5715    1.0000 </r>
       <r>    0.7164    1.0000 </r>
       <r>    0.9252    1.0000 </r>
       <r>   10.1723    0.0000 </r>
       <r>   10.6480    0.0000 </r>
       <r>   10.9602    0.0000 </r>
       <r>   11.3025    0.0000 </r>
       <r>   11.7193    0.0000 </r>
      </set>
     </set>
    </set>
   </array>
  </eigenvalues>
  <separator name="orbital magnetization" >
   <v name="MAGDIPOLOUT">      0.00000000      0.00000000      0.00000000</v>
  </separator>
  <dos>
   <i name="efermi">      1.78571594 </i>
   <total>
    <array>
     <dimension dim="1">gridpoints</dimension>
     <dimension dim="2">spin</dimension>
     <field>energy</field>
     <field>total</field>
     <field>integrated</field>
     <set>
      <set comment="spin 1">
       <r>   -19.6777     0.0000     0.0000 </r>
       <r>   -19.5671     0.0000     0.0000 </r>
       <r>   -19.4565     0.0000     0.0000 </r>
       <r>   -19.3459     0.0000     0.0000 </r>
       <r>   -19.2353     0.0000     0.0000 </r>
       <r>   -19.1246     0.0000     0.0000 </r>
       <r>   -19.0140     0.0000     0.0000 </r>
       <r>   -18.9034     0.0000     0.0000 </r>
       <r>   -18.7928     0.0000     0.0000 </r>
       <r>   -18.6822     0.0000     0.0000 </r>
       <r>   -18.5715     0.0000     0.0000 </r>
       <r>   -18.4609     0.0000     0.0000 </r>
       <r>   -18.3503     0.0015     0.0002 </r>
       <r>   -18.2397     0.0455     0.0052 </r>
       <r>   -18.1291     0.2561     0.0335 </r>
       <r>   -18.0185     0.9590     0.1396 </r>
       <r>   -17.9078     2.1805     0.3808 </r>
       <r>   -17.7972     2.2492     0.6296 </r>
       <r>   -17.6866     3.1545     0.9786 </r>
       <r>   -17.5760     6.7100     1.7208 </r>
       <r>   -17.4654     3.7440     2.1350 </r>
       <r>   -17.3547     0.7674     2.2198 </r>
       <r>   -17.2441     1.6731     2.4049 </r>
       <r>   -17.1335     7.3390     3.2168 </r>
       <r>   -17.0229     4.6929     3.7359 </r>
       <r>   -16.9123     0.5599     3.7978 </r>
       <r>   -16.8017     0.9844     3.9067 </r>
       <r>   -16.6910     2.7645     4.2125 </r>
       <r>   -16.5804     6.4786     4.9292 </r>
       <r>   -16.4698     3.7194     5.3406 </r>
       <r>   -16.3592     1.9929     5.5610 </r>
       <r>   -16.2486     2.2007     5.8045 </r>
       <r>   -16.1379     3.0474     6.1416 </r>
       <r>   -16.0273    16.2881     7.9433 </r>
       <r>   -15.9167    27.1049    10.9416 </r>
       <r>   -15.8061     9.0548    11.9433 </r>
       <r>   -15.6955     0.5090    11.9996 </r>
       <r>   -15.5848     0.0039    12.0000 </r>
       <r>   -15.4742     0.0000    12.0000 </r>
       <r>   -15.3636     0.0000    12.0000 </r>
       <r>   -15.2530     0.0000    12.0000 </r>
       <r>   -15.1424     0.0000    12.0000 </r>
       <r>   -15.0318     0.0000    12.0000 </r>
       <r>   -14.9211     0.0000    12.0000 </r>
       <r>   -14.8105     0.0000    12.0000 </r>
       <r>   -14.6999     0.0000    12.0000 </r>
       <r>   -14.5893     0.0000    12.0000 </r>
       <r>   -14.4787     0.0000    12.0000 </r>
       <r>   -14.3680     0.0000    12.0000 </r>
       <r>   -14.2574     0.0000    12.0000 </r>
       <r>   -14.1468     0.0000    12.0000 </r>
       <r>   -14.0362     0.0000    12.0000 </r>
       <r>   -13.9256     0.0000    12.0000 </r>
       <r>   -13.8150     0.0000    12.0000 </r>
       <r>   -13.7043     0.0000    12.0000 </r>
       <r>   -13.5937     0.0000    12.0000 </r>
       <r>   -13.4831     0.0000    12.0000 </r>
       <r>   -13.3725     0.0000    12.0000 </r>
       <r>   -13.2619     0.0000    12.0000 </r>
       <r>   -13.1512     0.0000    12.0000 </r>
       <r>   -13.0406     0.0000    12.0000 </r>
       <r>   -12.9300     0.0000    12.0000 </r>
       <r>   -12.8194     0.0000    12.0000 </r>
       <r>   -12.7088     0.0000    12.0000 </r>
       <r>   -12.5981     0.0000    12.0000 </r>
       <r>   -12.4875     0.0000    12.0000 </r>
       <r>   -12.3769     0.0000    12.0000 </r>
       <r>   -12.2663     0.0000    12.0000 </r>
       <r>   -12.1557     0.0000    12.0000 </r>
       <r>   -12.0451     0.0000    12.0000 </r>
       <r>   -11.9344     0.0000    12.0000 </r>
       <r>   -11.8238     0.0000    12.0000 </r>
       <r>   -11.7132     0.0000    12.0000 </r>
       <r>   -11.6026     0.0000    12.0000 </r>
       <r>   -11.4920     0.0000    12.0000 </r>
       <r>   -11.3813     0.0000    12.0000 </r>
       <r>   -11.2707     0.0000    12.0000 </r>
       <r>   -11.1601     0.0000    12.0000 </r>
       <r>   -11.0495     0.0000    12.0000 </r>
       <r>   -10.9389     0.0000    12.0000 </r>
       <r>   -10.8283     0.0000    12.0000 </r>
       <r>   -10.7176     0.0000    12.0000 </r>
       <r>   -10.6070     0.0000    12.0000 </r>
       <r>   -10.4964     0.0000    12.0000 </r>
       <r>   -10.3858     0.0000    12.0000 </r>
       <r>   -10.2752     0.0000    12.0000 </r>
       <r>   -10.1645     0.0000    12.0000 </r>
       <r>   -10.0539     0.0000    12.0000 </r>
       <r>    -9.9433     0.0000    12.0000 </r>
       <r>    -9.8327     0.0000    12.0000 </r>
       <r>    -9.7221     0.0000    12.0000 </r>
       <r>    -9.6114     0.0000    12.0000 </r>
       <r>    -9.5008     0.0000    12.0000 </r>
       <r>    -9.3902     0.0000    12.0000 </r>
       <r>    -9.2796     0.0000    12.0000 </r>
       <r>    -9.1690     0.0000    12.0000 </r>
       <r>    -9.0584     0.0000    12.0000 </r>
       <r>    -8.9477     0.0000    12.0000 </r>
       <r>    -8.8371     0.0000    12.0000 </r>
       <r>    -8.7265     0.0000    12.0000 </r>
       <r>    -8.6159     0.0000    12.0000 </r>
       <r>    -8.5053     0.0000    12.0000 </r>
       <r>    -8.3946     0.0000    12.0000 </r>
       <r>    -8.2840     0.0000    12.0000 </r>
       <r>    -8.1734     0.0001    12.0000 </r>
       <r>    -8.0628     0.0111    12.0012 </r>
       <r>    -7.9522     0.1087    12.0133 </r>
       <r>    -7.8416     0.1405    12.0288 </r>
       <r>    -7.7309     0.0920    12.0390 </r>
       <r>    -7.6203     0.4094    12.0843 </r>
       <r>    -7.5097     0.9673    12.1913 </r>
       <r>    -7.3991     1.2284    12.3271 </r>
       <r>    -7.2885     1.9574    12.5437 </r>
       <r>    -7.1778     1.0488    12.6597 </r>
       <r>    -7.0672     1.3758    12.8119 </r>
       <r>    -6.9566     4.5865    13.3192 </r>
       <r>    -6.8460     4.7670    13.8465 </r>
       <r>    -6.7354     1.5477    14.0177 </r>
       <r>    -6.6247     0.1996    14.0398 </r>
       <r>    -6.5141     0.6922    14.1164 </r>
       <r>    -6.4035     0.8005    14.2049 </r>
       <r>    -6.2929     0.1229    14.2185 </r>
       <r>    -6.1823     0.0255    14.2214 </r>
       <r>    -6.0717     0.5195    14.2788 </r>
       <r>    -5.9610     3.3875    14.6535 </r>
       <r>    -5.8504     6.9514    15.4225 </r>
       <r>    -5.7398     3.0308    15.7578 </r>
       <r>    -5.6292     0.2106    15.7811 </r>
       <r>    -5.5186     0.0172    15.7830 </r>
       <r>    -5.4079     0.3455    15.8212 </r>
       <r>    -5.2973     0.9971    15.9315 </r>
       <r>    -5.1867     0.9393    16.0354 </r>
       <r>    -5.0761     2.1883    16.2774 </r>
       <r>    -4.9655     3.8831    16.7070 </r>
       <r>    -4.8549     2.9687    17.0354 </r>
       <r>    -4.7442     1.8863    17.2440 </r>
       <r>    -4.6336     1.7896    17.4420 </r>
       <r>    -4.5230     2.0034    17.6636 </r>
       <r>    -4.4124     0.6300    17.7333 </r>
       <r>    -4.3018     0.7424    17.8154 </r>
       <r>    -4.1911     3.0692    18.1549 </r>
       <r>    -4.0805     8.8670    19.1358 </r>
       <r>    -3.9699     9.6663    20.2051 </r>
       <r>    -3.8593     6.6046    20.9357 </r>
       <r>    -3.7487     6.7563    21.6830 </r>
       <r>    -3.6380     5.6434    22.3073 </r>
       <r>    -3.5274     5.6746    22.9350 </r>
       <r>    -3.4168     5.1297    23.5024 </r>
       <r>    -3.3062     2.7170    23.8030 </r>
       <r>    -3.1956     1.4928    23.9681 </r>
       <r>    -3.0850     0.2812    23.9992 </r>
       <r>    -2.9743     0.0069    24.0000 </r>
       <r>    -2.8637     0.0000    24.0000 </r>
       <r>    -2.7531     0.0000    24.0000 </r>
       <r>    -2.6425     0.0000    24.0000 </r>
       <r>    -2.5319     0.0000    24.0000 </r>
       <r>    -2.4212     0.0000    24.0000 </r>
       <r>    -2.3106     0.0000    24.0000 </r>
       <r>    -2.2000     0.0015    24.0002 </r>
       <r>    -2.0894     0.1626    24.0181 </r>
       <r>    -1.9788     2.6299    24.3091 </r>
       <r>    -1.8682     7.9625    25.1899 </r>
       <r>    -1.7575     8.1302    26.0892 </r>
       <r>    -1.6469     6.8135    26.8429 </r>
       <r>    -1.5363     5.3421    27.4338 </r>
       <r>    -1.4257     6.3713    28.1386 </r>
       <r>    -1.3151     8.5135    29.0804 </r>
       <r>    -1.2044     5.9381    29.7373 </r>
       <r>    -1.0938     3.8871    30.1672 </r>
       <r>    -0.9832     4.8521    30.7040 </r>
       <r>    -0.8726     8.3926    31.6324 </r>
       <r>    -0.7620     6.9225    32.3981 </r>
       <r>    -0.6513     7.3627    33.2126 </r>
       <r>    -0.5407     6.3377    33.9136 </r>
       <r>    -0.4301     6.2712    34.6073 </r>
       <r>    -0.3195     5.9534    35.2659 </r>
       <r>    -0.2089     8.0520    36.1566 </r>
       <r>    -0.0983     9.8210    37.2430 </r>
       <r>     0.0124     8.1885    38.1488 </r>
       <r>     0.1230     9.0073    39.1451 </r>
       <r>     0.2336     9.5107    40.1972 </r>
       <r>     0.3442    10.7075    41.3817 </r>
       <r>     0.4548     8.7261    42.3469 </r>
       <r>     0.5655     5.7656    42.9847 </r>
       <r>     0.6761     6.2858    43.6800 </r>
       <r>     0.7867     5.2865    44.2648 </r>
       <r>     0.8973     6.6456    44.9999 </r>
       <r>     1.0079     6.7048    45.7416 </r>
       <r>     1.1185     7.8554    46.6106 </r>
       <r>     1.2292     8.2856    47.5271 </r>
       <r>     1.3398     3.7311    47.9399 </r>
       <r>     1.4504     0.5310    47.9986 </r>
       <r>     1.5610     0.0128    48.0000 </r>
       <r>     1.6716     0.0000    48.0000 </r>
       <r>     1.7823     0.0000    48.0000 </r>
       <r>     1.8929     0.0000    48.0000 </r>
       <r>     2.0035     0.0000    48.0000 </r>
       <r>     2.1141     0.0000    48.0000 </r>
       <r>     2.2247     0.0000    48.0000 </r>
       <r>     2.3354     0.0000    48.0000 </r>
       <r>     2.4460     0.0000    48.0000 </r>
       <r>     2.5566     0.0000    48.0000 </r>
       <r>     2.6672     0.0000    48.0000 </r>
       <r>     2.7778     0.0000    48.0000 </r>
       <r>     2.8884     0.0000    48.0000 </r>
       <r>     2.9991     0.0000    48.0000 </r>
       <r>     3.1097     0.0000    48.0000 </r>
       <r>     3.2203     0.0000    48.0000 </r>
       <r>     3.3309     0.0000    48.0000 </r>
       <r>     3.4415     0.0000    48.0000 </r>
       <r>     3.5522     0.0000    48.0000 </r>
       <r>     3.6628     0.0000    48.0000 </r>
       <r>     3.7734     0.0000    48.0000 </r>
       <r>     3.8840     0.0000    48.0000 </r>
       <r>     3.9946     0.0000    48.0000 </r>
       <r>     4.1052     0.0000    48.0000 </r>
       <r>     4.2159     0.0000    48.0000 </r>
       <r>     4.3265     0.0000    48.0000 </r>
       <r>     4.4371     0.0000    48.0000 </r>
       <r>     4.5477     0.0000    48.0000 </r>
       <r>     4.6583     0.0000    48.0000 </r>
       <r>     4.7690     0.0000    48.0000 </r>
       <r>     4.8796     0.0000    48.0000 </r>
       <r>     4.9902     0.0000    48.0000 </r>
       <r>     5.1008     0.0000    48.0000 </r>
       <r>     5.2114     0.0000    48.0000 </r>
       <r>     5.3221     0.0000    48.0000 </r>
       <r>     5.4327     0.0000    48.0000 </r>
       <r>     5.5433     0.0000    48.0000 </r>
       <r>     5.6539     0.0000    48.0000 </r>
       <r>     5.7645     0.0000    48.0000 </r>
       <r>     5.8751     0.0000    48.0000 </r>
       <r>     5.9858     0.0000    48.0000 </r>
       <r>     6.0964     0.0000    48.0000 </r>
       <r>     6.2070     0.0000    48.0000 </r>
       <r>     6.3176     0.0000    48.0000 </r>
       <r>     6.4282     0.0000    48.0000 </r>
       <r>     6.5389     0.0000    48.0000 </r>
       <r>     6.6495     0.0000    48.0000 </r>
       <r>     6.7601     0.0000    48.0000 </r>
       <r>     6.8707     0.0000    48.0000 </r>
       <r>     6.9813     0.0000    48.0000 </r>
       <r>     7.0919     0.0002    48.0000 </r>
       <r>     7.2026     0.0133    48.0015 </r>
       <r>     7.3132     0.1163    48.0144 </r>
       <r>     7.4238     0.1324    48.0290 </r>
       <r>     7.5344     0.0199    48.0312 </r>
       <r>     7.6450     0.0004    48.0313 </r>
       <r>     7.7557     0.0034    48.0316 </r>
       <r>     7.8663     0.0941    48.0420 </r>
       <r>     7.9769     0.3167    48.0771 </r>
       <r>     8.0875     0.1798    48.0970 </r>
       <r>     8.1981     0.5231    48.1548 </r>
       <r>     8.3088     0.9176    48.2563 </r>
       <r>     8.4194     0.2194    48.2806 </r>
       <r>     8.5300     0.0617    48.2874 </r>
       <r>     8.6406     0.8534    48.3818 </r>
       <r>     8.7512     1.8504    48.5865 </r>
       <r>     8.8618     0.6033    48.6532 </r>
       <r>     8.9725     0.0270    48.6562 </r>
       <r>     9.0831     0.0006    48.6563 </r>
       <r>     9.1937     0.0313    48.6598 </r>
       <r>     9.3043     0.2601    48.6885 </r>
       <r>     9.4149     0.5924    48.7541 </r>
       <r>     9.5256     1.0852    48.8741 </r>
       <r>     9.6362     1.4872    49.0386 </r>
       <r>     9.7468     3.1073    49.3823 </r>
       <r>     9.8574     2.9394    49.7075 </r>
       <r>     9.9680     1.7078    49.8964 </r>
       <r>    10.0786     0.5331    49.9554 </r>
       <r>    10.1893     1.1211    50.0794 </r>
       <r>    10.2999     1.3437    50.2280 </r>
       <r>    10.4105     2.0905    50.4593 </r>
       <r>    10.5211     3.1424    50.8069 </r>
       <r>    10.6317     5.2009    51.3822 </r>
       <r>    10.7424     9.0429    52.3825 </r>
       <r>    10.8530     6.1239    53.0599 </r>
       <r>    10.9636     6.6122    53.7914 </r>
       <r>    11.0742     7.2235    54.5904 </r>
       <r>    11.1848     2.9719    54.9192 </r>
       <r>    11.2955     3.7428    55.3332 </r>
       <r>    11.4061     5.6782    55.9613 </r>
       <r>    11.5167     6.3109    56.6594 </r>
       <r>    11.6273     5.2968    57.2453 </r>
       <r>    11.7379     3.3555    57.6165 </r>
       <r>    11.8485     2.1326    57.8524 </r>
       <r>    11.9592     0.7068    57.9306 </r>
       <r>    12.0698     0.4918    57.9850 </r>
       <r>    12.1804     0.1311    57.9995 </r>
       <r>    12.2910     0.0044    58.0000 </r>
       <r>    12.4016     0.0000    58.0000 </r>
       <r>    12.5123     0.0000    58.0000 </r>
       <r>    12.6229     0.0000    58.0000 </r>
       <r>    12.7335     0.0000    58.0000 </r>
       <r>    12.8441     0.0000    58.0000 </r>
       <r>    12.9547     0.0000    58.0000 </r>
       <r>    13.0653     0.0000    58.0000 </r>
       <r>    13.1760     0.0000    58.0000 </r>
       <r>    13.2866     0.0000    58.0000 </r>
       <r>    13.3972     0.0000    58.0000 </r>
       <r>    13.5078     0.0000    58.0000 </r>
      </set>
     </set>
    </array>
   </total>
  </dos>
 </calculation>
 <structure name="finalpos" >
  <crystal>
   <varray name="basis" >
    <v>       4.87342988       0.00000000       0.00000000 </v>
    <v>      -2.43671494       4.22051408       0.00000000 </v>
    <v>       0.00000000       0.00000000       5.37418982 </v>
   </varray>
   <i name="volume">    110.53837516 </i>
   <varray name="rec_basis" >
    <v>       0.20519429       0.11846898      -0.00000000 </v>
    <v>       0.00000000       0.23693796       0.00000000 </v>
    <v>       0.00000000      -0.00000000       0.18607456 </v>
   </varray>
  </crystal>
  <varray name="positions" >
   <v>       0.46473579       0.00000000       0.66666667 </v>
   <v>       0.00000000       0.46473579       0.33333333 </v>
   <v>       0.53526421       0.53526421       0.00000000 </v>
   <v>       0.13533423       0.72403938       0.55425802 </v>
   <v>       0.27596062       0.41129484       0.22092468 </v>
   <v>       0.58870516       0.86466577       0.88759135 </v>
   <v>       0.41129484       0.27596062       0.77907532 </v>
   <v>       0.86466577       0.58870516       0.11240865 </v>
   <v>       0.72403938       0.13533423       0.44574198 </v>
  </varray>
 </structure>
</modeling>
