<?xml version="1.0" encoding="ISO-8859-1"?>
<modeling>
 <generator>
  <i name="program" type="string">vasp </i>
  <i name="version" type="string">6.4.1  </i>
  <i name="subversion" type="string">05Apr23 (build Sep  6 2023 20:49:31) complex                          parallel </i>
  <i name="platform" type="string">LinuxNV </i>
  <i name="date" type="string">2023 10 19 </i>
  <i name="time" type="string">14:07:46 </i>
 </generator>
 <incar>
  <i type="string" name="PREC">Accurate</i>
  <i type="string" name="ALGO">Fast</i>
  <i name="EDIFF">      0.00000001</i>
  <i name="ENCUT">    500.00000000</i>
  <i type="int" name="ISMEAR">     0</i>
  <i name="SIGMA">      0.10000000</i>
  <i type="logical" name="LEPSILON"> T  </i>
 </incar>
 <primitive_cell>
  <structure name="primitive_cell" >
   <crystal>
    <varray name="basis" >
     <v>       4.87342988       0.00000000       0.00000000 </v>
     <v>      -2.43671494       4.22051408       0.00000000 </v>
     <v>       0.00000000       0.00000000       5.37418982 </v>
    </varray>
    <i name="volume">    110.53837516 </i>
    <varray name="rec_basis" >
     <v>       0.20519429       0.11846898      -0.00000000 </v>
     <v>       0.00000000       0.23693796       0.00000000 </v>
     <v>       0.00000000      -0.00000000       0.18607456 </v>
    </varray>
   </crystal>
   <varray name="positions" >
    <v>       0.46467067       0.99997543       0.66660030 </v>
    <v>       0.00002457       0.46469523       0.33326696 </v>
    <v>       0.53530477       0.53532933       0.99993363 </v>
    <v>       0.13551097       0.72380904       0.55424703 </v>
    <v>       0.27619096       0.41170194       0.22091369 </v>
    <v>       0.58829806       0.86448903       0.88758036 </v>
    <v>       0.41130878       0.27584401       0.77920281 </v>
    <v>       0.86453523       0.58869122       0.11253615 </v>
    <v>       0.72415599       0.13546477       0.44586948 </v>
   </varray>
  </structure>
  <varray name="primitive_index" >
   <v type="int" >        1 </v>
   <v type="int" >        2 </v>
   <v type="int" >        3 </v>
   <v type="int" >        4 </v>
   <v type="int" >        5 </v>
   <v type="int" >        6 </v>
   <v type="int" >        7 </v>
   <v type="int" >        8 </v>
   <v type="int" >        9 </v>
  </varray>
 </primitive_cell>
 <kpoints>
  <generation param="Gamma">
   <v type="int" name="divisions">       4        4        4 </v>
   <v name="usershift">      0.00000000       0.00000000       0.00000000 </v>
   <v name="genvec1">      0.25000000       0.00000000       0.00000000 </v>
   <v name="genvec2">      0.00000000       0.25000000       0.00000000 </v>
   <v name="genvec3">      0.00000000       0.00000000       0.25000000 </v>
   <v name="shift">      0.00000000       0.00000000       0.00000000 </v>
  </generation>
  <varray name="kpointlist" >
   <v>       0.00000000       0.00000000       0.00000000 </v>
   <v>       0.25000000       0.00000000       0.00000000 </v>
   <v>       0.50000000       0.00000000       0.00000000 </v>
   <v>       0.25000000       0.25000000       0.00000000 </v>
   <v>       0.00000000       0.00000000       0.25000000 </v>
   <v>       0.25000000       0.00000000       0.25000000 </v>
   <v>       0.00000000       0.25000000       0.25000000 </v>
   <v>       0.50000000       0.00000000       0.25000000 </v>
   <v>       0.25000000       0.25000000       0.25000000 </v>
   <v>      -0.25000000       0.50000000       0.25000000 </v>
   <v>       0.00000000       0.00000000       0.50000000 </v>
   <v>       0.25000000       0.00000000       0.50000000 </v>
   <v>       0.50000000       0.00000000       0.50000000 </v>
   <v>       0.25000000       0.25000000       0.50000000 </v>
  </varray>
  <varray name="weights" >
   <v>       0.01562500 </v>
   <v>       0.09375000 </v>
   <v>       0.04687500 </v>
   <v>       0.09375000 </v>
   <v>       0.03125000 </v>
   <v>       0.09375000 </v>
   <v>       0.09375000 </v>
   <v>       0.09375000 </v>
   <v>       0.09375000 </v>
   <v>       0.09375000 </v>
   <v>       0.01562500 </v>
   <v>       0.09375000 </v>
   <v>       0.04687500 </v>
   <v>       0.09375000 </v>
  </varray>
 </kpoints>
 <parameters>
  <separator name="general" >
   <i type="string" name="SYSTEM">unknown system</i>
   <i type="logical" name="LCOMPAT"> F  </i>
  </separator>
  <separator name="electronic" >
   <i type="string" name="PREC">accura</i>
   <i name="ENMAX">    500.00000000</i>
   <i name="ENAUG">    605.39200000</i>
   <i name="EDIFF">      0.00000001</i>
   <i type="int" name="IALGO">    68</i>
   <i type="int" name="IWAVPR">    10</i>
   <i type="int" name="NBANDS">    29</i>
   <i type="int" name="NBANDSLOW">    -1</i>
   <i type="int" name="NBANDSHIGH">    -1</i>
   <i name="NELECT">     48.00000000</i>
   <i type="int" name="TURBO">     0</i>
   <i type="int" name="IRESTART">     0</i>
   <i type="int" name="NREBOOT">     0</i>
   <i type="int" name="NMIN">     0</i>
   <i name="EREF">      0.00000000</i>
   <separator name="electronic smearing" >
    <i type="int" name="ISMEAR">     0</i>
    <i name="SIGMA">      0.10000000</i>
    <i name="KSPACING">      0.50000000</i>
    <i type="logical" name="KGAMMA"> T  </i>
    <i type="logical" name="KBLOWUP"> T  </i>
   </separator>
   <separator name="electronic projectors" >
    <i type="logical" name="LREAL"> F  </i>
    <v name="ROPT">      0.00000000      0.00000000</v>
    <i type="int" name="LMAXPAW">  -100</i>
    <i type="int" name="LMAXMIX">     2</i>
    <i type="logical" name="NLSPLINE"> F  </i>
   </separator>
   <separator name="electronic startup" >
    <i type="int" name="ISTART">     0</i>
    <i type="int" name="ICHARG">     2</i>
    <i type="int" name="INIWAV">     1</i>
   </separator>
   <separator name="electronic spin" >
    <i type="int" name="ISPIN">     1</i>
    <i type="logical" name="LNONCOLLINEAR"> F  </i>
    <v name="MAGMOM">      1.00000000      1.00000000      1.00000000      1.00000000      1.00000000      1.00000000      1.00000000      1.00000000      1.00000000</v>
    <i name="NUPDOWN">     -1.00000000</i>
    <i type="logical" name="LSORBIT"> F  </i>
    <v name="SAXIS">      0.00000000      0.00000000      1.00000000</v>
    <i type="logical" name="LSPIRAL"> F  </i>
    <v name="QSPIRAL">      0.00000000      0.00000000      0.00000000</v>
    <i type="logical" name="LZEROZ"> F  </i>
   </separator>
   <separator name="electronic exchange-correlation" >
    <i type="logical" name="LASPH"> F  </i>
    <i type="logical" name="LMETAGGA"> F  </i>
   </separator>
   <separator name="electronic convergence" >
    <i type="int" name="NELM">    60</i>
    <i type="int" name="NELMDL">    -5</i>
    <i type="int" name="NELMIN">     2</i>
    <i name="ENINI">    500.00000000</i>
    <separator name="electronic convergence detail" >
     <i type="logical" name="LDIAG"> T  </i>
     <i type="logical" name="LSUBROT"> F  </i>
     <i name="WEIMIN">      0.00000000</i>
     <i name="EBREAK">      0.00000000</i>
     <i name="DEPER">      0.30000000</i>
     <i type="int" name="NRMM">     4</i>
     <i name="TIME">      0.40000000</i>
    </separator>
   </separator>
   <separator name="electronic mixer" >
    <i name="AMIX">      0.40000000</i>
    <i name="BMIX">      1.00000000</i>
    <i name="AMIN">      0.10000000</i>
    <i name="AMIX_MAG">      1.60000000</i>
    <i name="BMIX_MAG">      1.00000000</i>
    <separator name="electronic mixer details" >
     <i type="int" name="IMIX">     4</i>
     <i type="logical" name="MIXFIRST"> F  </i>
     <i type="int" name="MAXMIX">   -45</i>
     <i name="WC">    100.00000000</i>
     <i type="int" name="INIMIX">     1</i>
     <i type="int" name="MIXPRE">     1</i>
     <i type="int" name="MREMOVE">     5</i>
    </separator>
   </separator>
   <separator name="electronic dipolcorrection" >
    <i type="logical" name="LDIPOL"> F  </i>
    <i type="logical" name="LMONO"> F  </i>
    <i type="int" name="IDIPOL">     0</i>
    <i name="EPSILON">      1.00000000</i>
    <v name="DIPOL">   -100.00000000   -100.00000000   -100.00000000</v>
    <i name="EFIELD">      0.00000000</i>
   </separator>
  </separator>
  <separator name="grids" >
   <i type="int" name="NGX">    36</i>
   <i type="int" name="NGY">    36</i>
   <i type="int" name="NGZ">    40</i>
   <i type="int" name="NGXF">    72</i>
   <i type="int" name="NGYF">    72</i>
   <i type="int" name="NGZF">    80</i>
   <i type="logical" name="ADDGRID"> F  </i>
  </separator>
  <separator name="ionic" >
   <i type="int" name="NSW">     0</i>
   <i type="int" name="IBRION">    -1</i>
   <i type="int" name="MDALGO">     0</i>
   <i type="int" name="ISIF">     2</i>
   <i name="PSTRESS">      0.00000000</i>
   <i name="EDIFFG">      0.00000010</i>
   <i type="int" name="NFREE">     0</i>
   <i name="POTIM">      0.50000000</i>
   <i name="SMASS">     -3.00000000</i>
   <i name="SCALEE">      1.00000000</i>
  </separator>
  <separator name="ionic md" >
   <i name="TEBEG">      0.00010000</i>
   <i name="TEEND">      0.00010000</i>
   <i type="int" name="NBLOCK">     1</i>
   <i type="int" name="KBLOCK">     1</i>
   <i type="int" name="NPACO">   256</i>
   <i name="APACO">     10.00000000</i>
  </separator>
  <separator name="symmetry" >
   <i type="int" name="ISYM">     2</i>
   <i name="SYMPREC">      0.00001000</i>
  </separator>
  <separator name="dos" >
   <i type="int" name="LORBIT">     0</i>
   <v name="RWIGS">     -1.00000000     -1.00000000</v>
   <i type="int" name="NEDOS">   301</i>
   <i name="EMIN">     10.00000000</i>
   <i name="EMAX">    -10.00000000</i>
   <i name="EFERMI">      0.00000000</i>
  </separator>
  <separator name="writing" >
   <i type="int" name="NWRITE">     2</i>
   <i type="logical" name="LWAVE"> T  </i>
   <i type="logical" name="LDOWNSAMPLE"> F  </i>
   <i type="logical" name="LCHARG"> T  </i>
   <i type="logical" name="LPARD"> F  </i>
   <i type="logical" name="LVTOT"> F  </i>
   <i type="logical" name="LVHAR"> F  </i>
   <i type="logical" name="LELF"> F  </i>
   <i type="logical" name="LOPTICS"> F  </i>
   <v name="STM">      0.00000000      0.00000000      0.00000000      0.00000000      0.00000000      0.00000000      0.00000000</v>
  </separator>
  <separator name="performance" >
   <i type="int" name="NPAR">     1</i>
   <i type="int" name="NSIM">     4</i>
   <i type="int" name="NBLK">    -1</i>
   <i type="logical" name="LPLANE"> T  </i>
   <i type="logical" name="LSCALAPACK"> T  </i>
   <i type="logical" name="LSCAAWARE"> F  </i>
   <i type="logical" name="LSCALU"> F  </i>
   <i type="logical" name="LASYNC"> F  </i>
   <i type="logical" name="LORBITALREAL"> F  </i>
  </separator>
  <separator name="miscellaneous" >
   <i type="int" name="IDIOT">     3</i>
   <i type="int" name="PHON_NSTRUCT">    -1</i>
   <i type="logical" name="LMUSIC"> F  </i>
   <v name="POMASS">     28.08500000     16.00000000</v>
   <v name="DARWINR">      0.00000000      0.00000000</v>
   <v name="DARWINV">      1.00000000      1.00000000</v>
   <i type="logical" name="LCORR"> T  </i>
  </separator>
  <i type="logical" name="GGA_COMPAT"> T  </i>
  <i type="logical" name="LBERRY"> F  </i>
  <i type="int" name="ICORELEVEL">     0</i>
  <i type="logical" name="LDAU"> F  </i>
  <i type="int" name="I_CONSTRAINED_M">     0</i>
  <separator name="electronic exchange-correlation" >
   <i type="string" name="GGA">--</i>
   <i type="int" name="VOSKOWN">     0</i>
   <i type="logical" name="LHFCALC"> F  </i>
   <i type="string" name="PRECFOCK"></i>
   <i type="logical" name="LSYMGRAD"> F  </i>
   <i type="logical" name="LHFONE"> F  </i>
   <i type="logical" name="LRHFCALC"> F  </i>
   <i type="logical" name="LTHOMAS"> F  </i>
   <i type="logical" name="LMODELHF"> F  </i>
   <i type="logical" name="LFOCKACE"> F  </i>
   <i name="ENCUT4O">     -1.00000000</i>
   <i type="int" name="EXXOEP">     0</i>
   <i type="int" name="FOURORBIT">     0</i>
   <i name="AEXX">      0.00000000</i>
   <i name="HFALPHA">      0.00000000</i>
   <i name="MCALPHA">      0.00000000</i>
   <i name="ALDAX">      1.00000000</i>
   <i name="AGGAX">      1.00000000</i>
   <i name="ALDAC">      1.00000000</i>
   <i name="AGGAC">      1.00000000</i>
   <i type="int" name="NKREDX">     1</i>
   <i type="int" name="NKREDY">     1</i>
   <i type="int" name="NKREDZ">     1</i>
   <i type="logical" name="SHIFTRED"> F  </i>
   <i type="logical" name="ODDONLY"> F  </i>
   <i type="logical" name="EVENONLY"> F  </i>
   <i type="int" name="LMAXFOCK">     0</i>
   <i type="int" name="NMAXFOCKAE">     0</i>
   <i type="logical" name="LFOCKAEDFT"> F  </i>
   <i name="HFSCREEN">      0.00000000</i>
   <i name="HFSCREENC">      0.00000000</i>
   <i type="int" name="NBANDSGWLOW">     0</i>
  </separator>
  <separator name="vdW DFT" >
   <i type="logical" name="LUSE_VDW"> F  </i>
   <i type="int" name="IVDW_NL">     1</i>
   <i type="logical" name="LSPIN_VDW"> F  </i>
   <i name="Zab_VDW">     -0.84910000</i>
   <i name="PARAM1">      0.12340000</i>
   <i name="PARAM2">      1.00000000</i>
   <i name="PARAM3">      0.00000000</i>
  </separator>
  <separator name="model GW" >
   <i type="int" name="MODEL_GW">     0</i>
   <i name="MODEL_EPS0">      7.36922501</i>
   <i name="MODEL_ALPHA">      1.00000000</i>
  </separator>
  <separator name="linear response parameters" >
   <i type="logical" name="LEPSILON"> T  </i>
   <i type="logical" name="LRPA"> F  </i>
   <i type="logical" name="LNABLA"> F  </i>
   <i type="logical" name="LVEL"> F  </i>
   <i name="CSHIFT">      0.10000000</i>
   <i name="OMEGAMAX">     -1.00000000</i>
   <i name="DEG_THRESHOLD">      0.00200000</i>
   <i name="RTIME">     -0.10000000</i>
   <i name="WPLASMAI">      0.00000000</i>
   <v name="DFIELD">      0.00000000      0.00000000      0.00000000</v>
   <v name="WPLASMA">      0.00000000      0.00000000      0.00000000      0.00000000      0.00000000      0.00000000      0.00000000      0.00000000      0.00000000</v>
  </separator>
  <separator name="orbital magnetization" >
   <i type="logical" name="NUCIND"> F  </i>
   <v name="MAGPOS">      0.00000000      0.00000000      0.00000000</v>
   <i type="logical" name="LNICSALL"> T  </i>
   <i type="logical" name="ORBITALMAG"> F  </i>
   <i type="logical" name="LMAGBLOCH"> F  </i>
   <i type="logical" name="LCHIMAG"> F  </i>
   <i type="logical" name="LGAUGE"> T  </i>
   <i type="int" name="MAGATOM">     0</i>
   <v name="MAGDIPOL">      0.00000000      0.00000000      0.00000000</v>
   <v name="AVECCONST">      0.00000000      0.00000000      0.00000000</v>
  </separator>
  <separator name="response functions" >
   <i type="logical" name="LALL_IN_ONE"> F  </i>
   <i type="int" name="IALL_IN_ONE">    -1</i>
   <i type="int" name="NBANDS_WAVE">    -1</i>
   <i type="logical" name="LFINITE_TEMPERATURE"> F  </i>
   <i type="logical" name="LADDER"> F  </i>
   <i type="logical" name="LRPAFORCE"> F  </i>
   <i type="logical" name="LFXC"> F  </i>
   <i type="logical" name="LHARTREE"> T  </i>
   <i type="int" name="IBSE">     0</i>
   <v type="int" name="KPOINT">    -1     0     0     0</v>
   <i type="logical" name="LTCTC"> F  </i>
   <i type="logical" name="LTCTE"> F  </i>
   <i type="logical" name="LTETE"> F  </i>
   <i type="logical" name="LTRIPLET"> F  </i>
   <i type="logical" name="LFXCEPS"> F  </i>
   <i type="logical" name="LFXHEG"> F  </i>
   <i type="int" name="NATURALO">     2</i>
   <i type="logical" name="LHOLEGF"> F  </i>
   <i type="logical" name="L2ORDER"> F  </i>
   <i type="logical" name="LDMP1"> F  </i>
   <i type="logical" name="LMP2LT"> F  </i>
   <i type="logical" name="LSMP2LT"> F  </i>
   <i type="logical" name="LGWLF"> F  </i>
   <i name="ENCUTGW">     -1.60000002</i>
   <i name="ENCUTGWSOFT">     -1.60000002</i>
   <i name="ENCUTLF">     -1.00000000</i>
   <i type="logical" name="LESF_SPLINES"> F  </i>
   <i type="int" name="LMAXMP2">    -1</i>
   <i name="SCISSOR">      0.00000000</i>
   <i type="int" name="NOMEGA">     0</i>
   <i type="int" name="NOMEGAR">     0</i>
   <i type="int" name="NBANDSGW">    -1</i>
   <i type="int" name="NBANDSO">    -1</i>
   <i type="int" name="NBANDSV">    -1</i>
   <i type="int" name="NELMGW">     1</i>
   <i type="int" name="NELMHF">     1</i>
   <i type="int" name="DIM">     3</i>
   <i type="int" name="IESPILON">     4</i>
   <i type="int" name="ANTIRES">     0</i>
   <i name="OMEGAMAX">    -30.00000000</i>
   <i name="OMEGAMIN">    -30.00000000</i>
   <i name="OMEGATL">   -200.00000000</i>
   <i type="int" name="OMEGAGRID">     0</i>
   <i name="CSHIFT">     -0.10000000</i>
   <i type="logical" name="LSELFENERGY"> F  </i>
   <i type="logical" name="LSPECTRAL"> F  </i>
   <i type="logical" name="LSPECTRALGW"> F  </i>
   <i type="logical" name="LSINGLES"> F  </i>
   <i type="logical" name="LFERMIGW"> F  </i>
   <i type="logical" name="ODDONLYGW"> F  </i>
   <i type="logical" name="EVENONLYGW"> F  </i>
   <i type="int" name="NKREDLFX">     1</i>
   <i type="int" name="NKREDLFY">     1</i>
   <i type="int" name="NKREDLFZ">     1</i>
   <i type="int" name="MAXMEM">  2800</i>
   <i type="int" name="TELESCOPE">     0</i>
   <i type="int" name="NTAUPAR">    -1</i>
   <i type="int" name="NOMEGAPAR">    -1</i>
   <i name="DAMP_NEWTON">      0.80000001</i>
   <i name="LAMBDA">      1.00000000</i>
  </separator>
  <separator name="External order field" >
   <i name="OFIELD_KAPPA">      0.00000000</i>
   <v name="OFIELD_K">      0.00000000      0.00000000      0.00000000</v>
   <i name="OFIELD_Q6_NEAR">      0.00000000</i>
   <i name="OFIELD_Q6_FAR">      0.00000000</i>
   <i name="OFIELD_A">      0.00000000</i>
  </separator>
  <separator name="optional k-points parameters" >
   <i type="int" name="KPOINTS_OPT_MODE">     1</i>
   <i type="logical" name="LKPOINTS_OPT"> F  </i>
  </separator>
 </parameters>
 <atominfo>
  <atoms>       9 </atoms>
  <types>       2 </types>
  <array name="atoms" >
   <dimension dim="1">ion</dimension>
   <field type="string">element</field>
   <field type="int">atomtype</field>
   <set>
    <rc><c>Si</c><c>   1</c></rc>
    <rc><c>Si</c><c>   1</c></rc>
    <rc><c>Si</c><c>   1</c></rc>
    <rc><c>O </c><c>   2</c></rc>
    <rc><c>O </c><c>   2</c></rc>
    <rc><c>O </c><c>   2</c></rc>
    <rc><c>O </c><c>   2</c></rc>
    <rc><c>O </c><c>   2</c></rc>
    <rc><c>O </c><c>   2</c></rc>
   </set>
  </array>
  <array name="atomtypes" >
   <dimension dim="1">type</dimension>
   <field type="int">atomspertype</field>
   <field type="string">element</field>
   <field>mass</field>
   <field>valence</field>
   <field type="string">pseudopotential</field>
   <set>
    <rc><c>   3</c><c>Si</c><c>     28.08500000</c><c>      4.00000000</c><c>  PAW_PBE Si 05Jan2001                  </c></rc>
    <rc><c>   6</c><c>O </c><c>     16.00000000</c><c>      6.00000000</c><c>  PAW_PBE O 08Apr2002                   </c></rc>
   </set>
  </array>
 </atominfo>
 <structure name="initialpos" >
  <crystal>
   <varray name="basis" >
    <v>       4.87342988       0.00000000       0.00000000 </v>
    <v>      -2.43671494       4.22051408       0.00000000 </v>
    <v>       0.00000000       0.00000000       5.37418982 </v>
   </varray>
   <i name="volume">    110.53837516 </i>
   <varray name="rec_basis" >
    <v>       0.20519429       0.11846898      -0.00000000 </v>
    <v>       0.00000000       0.23693796       0.00000000 </v>
    <v>       0.00000000      -0.00000000       0.18607456 </v>
   </varray>
  </crystal>
  <varray name="positions" >
   <v>       0.46467067       0.99997543       0.66660030 </v>
   <v>       0.00002457       0.46469523       0.33326696 </v>
   <v>       0.53530477       0.53532933       0.99993363 </v>
   <v>       0.13551097       0.72380904       0.55424703 </v>
   <v>       0.27619096       0.41170194       0.22091369 </v>
   <v>       0.58829806       0.86448903       0.88758036 </v>
   <v>       0.41130878       0.27584401       0.77920281 </v>
   <v>       0.86453523       0.58869122       0.11253615 </v>
   <v>       0.72415599       0.13546477       0.44586948 </v>
  </varray>
 </structure>
 <calculation>
  <scstep>
   <time name="dav">    0.50    0.50</time>
   <time name="total">    0.54    0.52</time>
   <energy>
    <i name="alphaZ">     71.30271804 </i>
    <i name="ewald">  -1930.19447163 </i>
    <i name="hartreedc">   -909.39693381 </i>
    <i name="XCdc">    141.70969010 </i>
    <i name="pawpsdc">   2343.66826019 </i>
    <i name="pawaedc">  -2301.68043871 </i>
    <i name="eentropy">     -0.00962990 </i>
    <i name="bandstr">    -15.82247130 </i>
    <i name="atom">   2903.33737771 </i>
    <i name="e_fr_energy">    302.91410069 </i>
    <i name="e_wo_entrp">    302.92373059 </i>
    <i name="e_0_energy">    302.91891564 </i>
   </energy>
  </scstep>
  <scstep>
   <time name="dav">    0.48    0.49</time>
   <time name="total">    0.49    0.49</time>
   <energy>
    <i name="e_fr_energy">    -60.94811437 </i>
    <i name="e_wo_entrp">    -60.94811437 </i>
    <i name="e_0_energy">    -60.94811437 </i>
   </energy>
  </scstep>
  <scstep>
   <time name="dav">    0.45    0.45</time>
   <time name="total">    0.45    0.45</time>
   <energy>
    <i name="e_fr_energy">    -80.16825728 </i>
    <i name="e_wo_entrp">    -80.16825728 </i>
    <i name="e_0_energy">    -80.16825728 </i>
   </energy>
  </scstep>
  <scstep>
   <time name="dav">    0.45    0.45</time>
   <time name="total">    0.45    0.45</time>
   <energy>
    <i name="e_fr_energy">    -80.41816221 </i>
    <i name="e_wo_entrp">    -80.41816221 </i>
    <i name="e_0_energy">    -80.41816221 </i>
   </energy>
  </scstep>
  <scstep>
   <time name="dav">    0.44    0.45</time>
   <time name="total">    0.53    0.51</time>
   <energy>
    <i name="e_fr_energy">    -80.42329594 </i>
    <i name="e_wo_entrp">    -80.42329594 </i>
    <i name="e_0_energy">    -80.42329594 </i>
   </energy>
  </scstep>
  <scstep>
   <time name="diag">    0.05    0.05</time>
   <time name="diis">    0.50    0.50</time>
   <time name="orth">    0.00    0.00</time>
   <time name="total">    0.67    0.62</time>
   <energy>
    <i name="e_fr_energy">    -70.67416679 </i>
    <i name="e_wo_entrp">    -70.67416679 </i>
    <i name="e_0_energy">    -70.67416679 </i>
   </energy>
  </scstep>
  <scstep>
   <time name="diag">    0.05    0.05</time>
   <time name="diis">    0.55    0.55</time>
   <time name="orth">    0.00    0.00</time>
   <time name="total">    0.73    0.68</time>
   <energy>
    <i name="e_fr_energy">    -70.97666729 </i>
    <i name="e_wo_entrp">    -70.97666729 </i>
    <i name="e_0_energy">    -70.97666729 </i>
   </energy>
  </scstep>
  <scstep>
   <time name="diag">    0.05    0.05</time>
   <time name="diis">    0.55    0.55</time>
   <time name="orth">    0.00    0.00</time>
   <time name="total">    0.72    0.67</time>
   <energy>
    <i name="e_fr_energy">    -70.96843957 </i>
    <i name="e_wo_entrp">    -70.96843957 </i>
    <i name="e_0_energy">    -70.96843957 </i>
   </energy>
  </scstep>
  <scstep>
   <time name="diag">    0.05    0.05</time>
   <time name="diis">    0.56    0.57</time>
   <time name="orth">    0.00    0.00</time>
   <time name="total">    0.73    0.69</time>
   <energy>
    <i name="e_fr_energy">    -70.98748444 </i>
    <i name="e_wo_entrp">    -70.98748444 </i>
    <i name="e_0_energy">    -70.98748444 </i>
   </energy>
  </scstep>
  <scstep>
   <time name="diag">    0.05    0.05</time>
   <time name="diis">    0.59    0.59</time>
   <time name="orth">    0.00    0.00</time>
   <time name="total">    0.78    0.73</time>
   <energy>
    <i name="e_fr_energy">    -70.99278457 </i>
    <i name="e_wo_entrp">    -70.99278457 </i>
    <i name="e_0_energy">    -70.99278457 </i>
   </energy>
  </scstep>
  <scstep>
   <time name="diag">    0.06    0.06</time>
   <time name="diis">    0.56    0.56</time>
   <time name="orth">    0.00    0.00</time>
   <time name="total">    0.74    0.70</time>
   <energy>
    <i name="e_fr_energy">    -70.98889428 </i>
    <i name="e_wo_entrp">    -70.98889428 </i>
    <i name="e_0_energy">    -70.98889428 </i>
   </energy>
  </scstep>
  <scstep>
   <time name="diag">    0.05    0.05</time>
   <time name="diis">    0.57    0.57</time>
   <time name="orth">    0.00    0.00</time>
   <time name="total">    0.74    0.69</time>
   <energy>
    <i name="e_fr_energy">    -70.98949529 </i>
    <i name="e_wo_entrp">    -70.98949529 </i>
    <i name="e_0_energy">    -70.98949529 </i>
   </energy>
  </scstep>
  <scstep>
   <time name="diag">    0.05    0.05</time>
   <time name="diis">    0.60    0.60</time>
   <time name="orth">    0.00    0.00</time>
   <time name="total">    0.77    0.72</time>
   <energy>
    <i name="e_fr_energy">    -70.98925493 </i>
    <i name="e_wo_entrp">    -70.98925493 </i>
    <i name="e_0_energy">    -70.98925493 </i>
   </energy>
  </scstep>
  <scstep>
   <time name="diag">    0.05    0.05</time>
   <time name="diis">    0.57    0.58</time>
   <time name="orth">    0.00    0.00</time>
   <time name="total">    0.75    0.70</time>
   <energy>
    <i name="e_fr_energy">    -70.98921404 </i>
    <i name="e_wo_entrp">    -70.98921404 </i>
    <i name="e_0_energy">    -70.98921404 </i>
   </energy>
  </scstep>
  <scstep>
   <time name="diag">    0.05    0.05</time>
   <time name="diis">    0.62    0.63</time>
   <time name="orth">    0.00    0.00</time>
   <time name="total">    0.80    0.75</time>
   <energy>
    <i name="e_fr_energy">    -70.98921128 </i>
    <i name="e_wo_entrp">    -70.98921128 </i>
    <i name="e_0_energy">    -70.98921128 </i>
   </energy>
  </scstep>
  <scstep>
   <time name="diag">    0.05    0.05</time>
   <time name="diis">    0.57    0.57</time>
   <time name="orth">    0.00    0.00</time>
   <time name="total">    0.74    0.69</time>
   <energy>
    <i name="e_fr_energy">    -70.98920994 </i>
    <i name="e_wo_entrp">    -70.98920994 </i>
    <i name="e_0_energy">    -70.98920994 </i>
   </energy>
  </scstep>
  <scstep>
   <time name="diag">    0.05    0.05</time>
   <time name="diis">    0.57    0.57</time>
   <time name="orth">    0.00    0.00</time>
   <time name="total">    0.80    0.70</time>
   <energy>
    <i name="e_fr_energy">    -70.98921016 </i>
    <i name="e_wo_entrp">    -70.98921016 </i>
    <i name="e_0_energy">    -70.98921016 </i>
   </energy>
  </scstep>
  <scstep>
   <time name="diag">    0.05    0.05</time>
   <time name="diis">    0.61    0.61</time>
   <time name="orth">    0.00    0.00</time>
   <time name="total">    0.78    0.73</time>
   <energy>
    <i name="e_fr_energy">    -70.98921035 </i>
    <i name="e_wo_entrp">    -70.98921035 </i>
    <i name="e_0_energy">    -70.98921035 </i>
   </energy>
  </scstep>
  <scstep>
   <time name="diag">    0.05    0.05</time>
   <time name="diis">    0.57    0.57</time>
   <time name="orth">    0.00    0.00</time>
   <time name="total">    0.74    0.69</time>
   <energy>
    <i name="e_fr_energy">    -70.98921031 </i>
    <i name="e_wo_entrp">    -70.98921031 </i>
    <i name="e_0_energy">    -70.98921031 </i>
   </energy>
  </scstep>
  <scstep>
   <time name="diag">    0.05    0.05</time>
   <time name="diis">    0.57    0.57</time>
   <time name="orth">    0.00    0.00</time>
   <time name="total">    0.74    0.69</time>
   <energy>
    <i name="e_fr_energy">    -70.98921035 </i>
    <i name="e_wo_entrp">    -70.98921035 </i>
    <i name="e_0_energy">    -70.98921035 </i>
   </energy>
  </scstep>
  <scstep>
   <time name="diag">    0.05    0.05</time>
   <time name="diis">    0.38    0.38</time>
   <time name="orth">    0.00    0.00</time>
   <time name="total">    0.55    0.50</time>
   <energy>
    <i name="e_fr_energy">    -70.98921033 </i>
    <i name="e_wo_entrp">    -70.98921033 </i>
    <i name="e_0_energy">    -70.98921033 </i>
   </energy>
  </scstep>
  <scstep>
   <time name="diag">    0.05    0.05</time>
   <time name="diis">    0.38    0.38</time>
   <time name="orth">    0.00    0.00</time>
   <time name="total">    0.46    0.44</time>
   <energy>
    <i name="alphaZ">     71.30271804 </i>
    <i name="ewald">  -1930.19447163 </i>
    <i name="hartreedc">  -1040.55623788 </i>
    <i name="XCdc">    150.68540653 </i>
    <i name="pawpsdc">   8045.43207203 </i>
    <i name="pawaedc">  -8005.80986181 </i>
    <i name="eentropy">     -0.00000000 </i>
    <i name="bandstr">   -265.18621332 </i>
    <i name="atom">   2903.33737771 </i>
    <i name="e_fr_energy">    -70.98921033 </i>
    <i name="e_wo_entrp">    -70.98921033 </i>
    <i name="e_0_energy">    -70.98921033 </i>
   </energy>
  </scstep>
  <structure>
   <crystal>
    <varray name="basis" >
     <v>       4.87342988       0.00000000       0.00000000 </v>
     <v>      -2.43671494       4.22051408       0.00000000 </v>
     <v>       0.00000000       0.00000000       5.37418982 </v>
    </varray>
    <i name="volume">    110.53837516 </i>
    <varray name="rec_basis" >
     <v>       0.20519429       0.11846898      -0.00000000 </v>
     <v>       0.00000000       0.23693796       0.00000000 </v>
     <v>       0.00000000      -0.00000000       0.18607456 </v>
    </varray>
   </crystal>
   <varray name="positions" >
    <v>       0.46467067       0.99997543       0.66660030 </v>
    <v>       0.00002457       0.46469523       0.33326696 </v>
    <v>       0.53530477       0.53532933       0.99993363 </v>
    <v>       0.13551097       0.72380904       0.55424703 </v>
    <v>       0.27619096       0.41170194       0.22091369 </v>
    <v>       0.58829806       0.86448903       0.88758036 </v>
    <v>       0.41130878       0.27584401       0.77920281 </v>
    <v>       0.86453523       0.58869122       0.11253615 </v>
    <v>       0.72415599       0.13546477       0.44586948 </v>
   </varray>
  </structure>
  <varray name="forces" >
   <v>       0.01813964       0.00119972       0.00411560 </v>
   <v>      -0.01010881       0.01510953       0.00411560 </v>
   <v>      -0.00803083      -0.01630925       0.00411560 </v>
   <v>      -0.27874573       0.00373226       0.15132308 </v>
   <v>       0.13614063      -0.24326702       0.15132308 </v>
   <v>       0.14260510       0.23953476       0.15132308 </v>
   <v>      -0.27169263       0.00593121      -0.15543868 </v>
   <v>       0.14098289       0.23232711      -0.15543868 </v>
   <v>       0.13070973      -0.23825832      -0.15543868 </v>
  </varray>
  <varray name="stress" >
   <v>      71.97423424       0.00000098       0.00000000 </v>
   <v>      -0.00000098      71.97423424       0.00000000 </v>
   <v>       0.00000000       0.00000000      73.62532197 </v>
  </varray>
  <energy>
   <i name="e_fr_energy">    -70.98921033 </i>
   <i name="e_wo_entrp">    -70.98921033 </i>
   <i name="e_0_energy">    -70.98921033 </i>
  </energy>
  <scstep>
   <time name="total">    7.04    1.51</time>
   <energy>
    <i name="e_fr_energy">   -182.68427732 </i>
    <i name="e_wo_entrp">   -182.68427732 </i>
    <i name="e_0_energy">   -182.68427732 </i>
   </energy>
  </scstep>
  <scstep>
   <time name="total">    6.86    1.32</time>
   <energy>
    <i name="e_fr_energy">   -172.55203979 </i>
    <i name="e_wo_entrp">   -172.55203979 </i>
    <i name="e_0_energy">   -172.55203979 </i>
   </energy>
  </scstep>
  <scstep>
   <time name="total">    6.88    1.33</time>
   <energy>
    <i name="e_fr_energy">   -172.69823567 </i>
    <i name="e_wo_entrp">   -172.69823567 </i>
    <i name="e_0_energy">   -172.69823567 </i>
   </energy>
  </scstep>
  <scstep>
   <time name="total">    0.54    0.54</time>
   <energy>
    <i name="e_fr_energy">   -172.70564175 </i>
    <i name="e_wo_entrp">   -172.70564175 </i>
    <i name="e_0_energy">   -172.70564175 </i>
   </energy>
  </scstep>
  <scstep>
   <time name="total">    0.54    0.54</time>
   <energy>
    <i name="e_fr_energy">   -172.70581000 </i>
    <i name="e_wo_entrp">   -172.70581000 </i>
    <i name="e_0_energy">   -172.70581000 </i>
   </energy>
  </scstep>
  <scstep>
   <time name="total">    0.55    0.55</time>
   <energy>
    <i name="e_fr_energy">   -172.70582110 </i>
    <i name="e_wo_entrp">   -172.70582110 </i>
    <i name="e_0_energy">   -172.70582110 </i>
   </energy>
  </scstep>
  <scstep>
   <time name="total">    0.55    0.55</time>
   <energy>
    <i name="e_fr_energy">   -172.70582087 </i>
    <i name="e_wo_entrp">   -172.70582087 </i>
    <i name="e_0_energy">   -172.70582087 </i>
   </energy>
  </scstep>
  <scstep>
   <time name="total">    0.55    0.55</time>
   <energy>
    <i name="e_fr_energy">   -172.70582094 </i>
    <i name="e_wo_entrp">   -172.70582094 </i>
    <i name="e_0_energy">   -172.70582094 </i>
   </energy>
  </scstep>
  <scstep>
   <time name="total">    0.55    0.55</time>
   <energy>
    <i name="e_fr_energy">   -172.70582160 </i>
    <i name="e_wo_entrp">   -172.70582160 </i>
    <i name="e_0_energy">   -172.70582160 </i>
   </energy>
  </scstep>
  <scstep>
   <time name="total">    0.55    0.56</time>
   <energy>
    <i name="e_fr_energy">   -172.70582183 </i>
    <i name="e_wo_entrp">   -172.70582183 </i>
    <i name="e_0_energy">   -172.70582183 </i>
   </energy>
  </scstep>
  <scstep>
   <time name="total">    7.04    1.50</time>
   <energy>
    <i name="e_fr_energy">   -182.07882841 </i>
    <i name="e_wo_entrp">   -182.07882841 </i>
    <i name="e_0_energy">   -182.07882841 </i>
   </energy>
  </scstep>
  <scstep>
   <time name="total">    6.85    1.31</time>
   <energy>
    <i name="e_fr_energy">   -172.66794985 </i>
    <i name="e_wo_entrp">   -172.66794985 </i>
    <i name="e_0_energy">   -172.66794985 </i>
   </energy>
  </scstep>
  <scstep>
   <time name="total">    6.88    1.33</time>
   <energy>
    <i name="e_fr_energy">   -172.81110742 </i>
    <i name="e_wo_entrp">   -172.81110742 </i>
    <i name="e_0_energy">   -172.81110742 </i>
   </energy>
  </scstep>
  <scstep>
   <time name="total">    0.54    0.54</time>
   <energy>
    <i name="e_fr_energy">   -172.81845358 </i>
    <i name="e_wo_entrp">   -172.81845358 </i>
    <i name="e_0_energy">   -172.81845358 </i>
   </energy>
  </scstep>
  <scstep>
   <time name="total">    0.54    0.54</time>
   <energy>
    <i name="e_fr_energy">   -172.81864371 </i>
    <i name="e_wo_entrp">   -172.81864371 </i>
    <i name="e_0_energy">   -172.81864371 </i>
   </energy>
  </scstep>
  <scstep>
   <time name="total">    0.55    0.55</time>
   <energy>
    <i name="e_fr_energy">   -172.81866102 </i>
    <i name="e_wo_entrp">   -172.81866102 </i>
    <i name="e_0_energy">   -172.81866102 </i>
   </energy>
  </scstep>
  <scstep>
   <time name="total">    0.55    0.55</time>
   <energy>
    <i name="e_fr_energy">   -172.81866166 </i>
    <i name="e_wo_entrp">   -172.81866166 </i>
    <i name="e_0_energy">   -172.81866166 </i>
   </energy>
  </scstep>
  <scstep>
   <time name="total">    0.55    0.56</time>
   <energy>
    <i name="e_fr_energy">   -172.81866144 </i>
    <i name="e_wo_entrp">   -172.81866144 </i>
    <i name="e_0_energy">   -172.81866144 </i>
   </energy>
  </scstep>
  <scstep>
   <time name="total">    0.55    0.56</time>
   <energy>
    <i name="e_fr_energy">   -172.81866010 </i>
    <i name="e_wo_entrp">   -172.81866010 </i>
    <i name="e_0_energy">   -172.81866010 </i>
   </energy>
  </scstep>
  <scstep>
   <time name="total">    0.55    0.55</time>
   <energy>
    <i name="e_fr_energy">   -172.81865955 </i>
    <i name="e_wo_entrp">   -172.81865955 </i>
    <i name="e_0_energy">   -172.81865955 </i>
   </energy>
  </scstep>
  <scstep>
   <time name="total">    7.04    1.51</time>
   <energy>
    <i name="e_fr_energy">   -182.14423446 </i>
    <i name="e_wo_entrp">   -182.14423446 </i>
    <i name="e_0_energy">   -182.14423446 </i>
   </energy>
  </scstep>
  <scstep>
   <time name="total">    6.84    1.31</time>
   <energy>
    <i name="e_fr_energy">   -172.55617719 </i>
    <i name="e_wo_entrp">   -172.55617719 </i>
    <i name="e_0_energy">   -172.55617719 </i>
   </energy>
  </scstep>
  <scstep>
   <time name="total">    6.87    1.32</time>
   <energy>
    <i name="e_fr_energy">   -172.70905287 </i>
    <i name="e_wo_entrp">   -172.70905287 </i>
    <i name="e_0_energy">   -172.70905287 </i>
   </energy>
  </scstep>
  <scstep>
   <time name="total">    0.54    0.54</time>
   <energy>
    <i name="e_fr_energy">   -172.71642170 </i>
    <i name="e_wo_entrp">   -172.71642170 </i>
    <i name="e_0_energy">   -172.71642170 </i>
   </energy>
  </scstep>
  <scstep>
   <time name="total">    0.54    0.54</time>
   <energy>
    <i name="e_fr_energy">   -172.71658160 </i>
    <i name="e_wo_entrp">   -172.71658160 </i>
    <i name="e_0_energy">   -172.71658160 </i>
   </energy>
  </scstep>
  <scstep>
   <time name="total">    0.54    0.54</time>
   <energy>
    <i name="e_fr_energy">   -172.71659095 </i>
    <i name="e_wo_entrp">   -172.71659095 </i>
    <i name="e_0_energy">   -172.71659095 </i>
   </energy>
  </scstep>
  <scstep>
   <time name="total">    0.54    0.54</time>
   <energy>
    <i name="e_fr_energy">   -172.71658828 </i>
    <i name="e_wo_entrp">   -172.71658828 </i>
    <i name="e_0_energy">   -172.71658828 </i>
   </energy>
  </scstep>
  <scstep>
   <time name="total">    0.54    0.54</time>
   <energy>
    <i name="e_fr_energy">   -172.71659822 </i>
    <i name="e_wo_entrp">   -172.71659822 </i>
    <i name="e_0_energy">   -172.71659822 </i>
   </energy>
  </scstep>
  <scstep>
   <time name="total">    0.54    0.54</time>
   <energy>
    <i name="e_fr_energy">   -172.71660156 </i>
    <i name="e_wo_entrp">   -172.71660156 </i>
    <i name="e_0_energy">   -172.71660156 </i>
   </energy>
  </scstep>
  <scstep>
   <time name="total">    0.54    0.54</time>
   <energy>
    <i name="e_fr_energy">   -172.71659634 </i>
    <i name="e_wo_entrp">   -172.71659634 </i>
    <i name="e_0_energy">   -172.71659634 </i>
   </energy>
  </scstep>
  <scstep>
   <time name="total">    1.24    0.78</time>
   <energy>
    <i name="e_fr_energy">     -0.48219347 </i>
    <i name="e_wo_entrp">     -0.48219347 </i>
    <i name="e_0_energy">     -0.48219347 </i>
   </energy>
  </scstep>
  <scstep>
   <time name="total">    1.24    0.77</time>
   <energy>
    <i name="e_fr_energy">     -0.48461787 </i>
    <i name="e_wo_entrp">     -0.48461787 </i>
    <i name="e_0_energy">     -0.48461787 </i>
   </energy>
  </scstep>
  <scstep>
   <time name="total">    1.24    0.78</time>
   <energy>
    <i name="e_fr_energy">     -0.48480016 </i>
    <i name="e_wo_entrp">     -0.48480016 </i>
    <i name="e_0_energy">     -0.48480016 </i>
   </energy>
  </scstep>
  <scstep>
   <time name="total">    1.25    0.78</time>
   <energy>
    <i name="e_fr_energy">     -0.48480878 </i>
    <i name="e_wo_entrp">     -0.48480878 </i>
    <i name="e_0_energy">     -0.48480878 </i>
   </energy>
  </scstep>
  <scstep>
   <time name="total">    1.24    0.78</time>
   <energy>
    <i name="e_fr_energy">     -0.48480908 </i>
    <i name="e_wo_entrp">     -0.48480908 </i>
    <i name="e_0_energy">     -0.48480908 </i>
   </energy>
  </scstep>
  <scstep>
   <time name="total">    1.22    0.75</time>
   <energy>
    <i name="e_fr_energy">     -0.48480910 </i>
    <i name="e_wo_entrp">     -0.48480910 </i>
    <i name="e_0_energy">     -0.48480910 </i>
   </energy>
  </scstep>
  <scstep>
   <time name="total">    1.17    0.71</time>
   <energy>
    <i name="e_fr_energy">     -0.48480910 </i>
    <i name="e_wo_entrp">     -0.48480910 </i>
    <i name="e_0_energy">     -0.48480910 </i>
   </energy>
  </scstep>
  <scstep>
   <time name="total">    1.15    0.69</time>
   <energy>
    <i name="e_fr_energy">     -0.48480910 </i>
    <i name="e_wo_entrp">     -0.48480910 </i>
    <i name="e_0_energy">     -0.48480910 </i>
   </energy>
  </scstep>
  <scstep>
   <time name="total">    1.15    0.69</time>
   <energy>
    <i name="e_fr_energy">     -0.48480910 </i>
    <i name="e_wo_entrp">     -0.48480910 </i>
    <i name="e_0_energy">     -0.48480910 </i>
   </energy>
  </scstep>
  <scstep>
   <time name="total">    1.14    0.68</time>
   <energy>
    <i name="e_fr_energy">     -0.48480910 </i>
    <i name="e_wo_entrp">     -0.48480910 </i>
    <i name="e_0_energy">     -0.48480910 </i>
   </energy>
  </scstep>
  <scstep>
   <time name="total">    1.23    0.77</time>
   <energy>
    <i name="e_fr_energy">     -0.48392554 </i>
    <i name="e_wo_entrp">     -0.48392554 </i>
    <i name="e_0_energy">     -0.48392554 </i>
   </energy>
  </scstep>
  <scstep>
   <time name="total">    1.23    0.77</time>
   <energy>
    <i name="e_fr_energy">     -0.48612446 </i>
    <i name="e_wo_entrp">     -0.48612446 </i>
    <i name="e_0_energy">     -0.48612446 </i>
   </energy>
  </scstep>
  <scstep>
   <time name="total">    1.23    0.77</time>
   <energy>
    <i name="e_fr_energy">     -0.48631737 </i>
    <i name="e_wo_entrp">     -0.48631737 </i>
    <i name="e_0_energy">     -0.48631737 </i>
   </energy>
  </scstep>
  <scstep>
   <time name="total">    1.23    0.77</time>
   <energy>
    <i name="e_fr_energy">     -0.48632614 </i>
    <i name="e_wo_entrp">     -0.48632614 </i>
    <i name="e_0_energy">     -0.48632614 </i>
   </energy>
  </scstep>
  <scstep>
   <time name="total">    1.24    0.77</time>
   <energy>
    <i name="e_fr_energy">     -0.48632645 </i>
    <i name="e_wo_entrp">     -0.48632645 </i>
    <i name="e_0_energy">     -0.48632645 </i>
   </energy>
  </scstep>
  <scstep>
   <time name="total">    1.20    0.74</time>
   <energy>
    <i name="e_fr_energy">     -0.48632647 </i>
    <i name="e_wo_entrp">     -0.48632647 </i>
    <i name="e_0_energy">     -0.48632647 </i>
   </energy>
  </scstep>
  <scstep>
   <time name="total">    1.17    0.71</time>
   <energy>
    <i name="e_fr_energy">     -0.48632647 </i>
    <i name="e_wo_entrp">     -0.48632647 </i>
    <i name="e_0_energy">     -0.48632647 </i>
   </energy>
  </scstep>
  <scstep>
   <time name="total">    1.17    0.70</time>
   <energy>
    <i name="e_fr_energy">     -0.48632647 </i>
    <i name="e_wo_entrp">     -0.48632647 </i>
    <i name="e_0_energy">     -0.48632647 </i>
   </energy>
  </scstep>
  <scstep>
   <time name="total">    1.15    0.69</time>
   <energy>
    <i name="e_fr_energy">     -0.48632647 </i>
    <i name="e_wo_entrp">     -0.48632647 </i>
    <i name="e_0_energy">     -0.48632647 </i>
   </energy>
  </scstep>
  <scstep>
   <time name="total">    1.14    0.68</time>
   <energy>
    <i name="e_fr_energy">     -0.48632647 </i>
    <i name="e_wo_entrp">     -0.48632647 </i>
    <i name="e_0_energy">     -0.48632647 </i>
   </energy>
  </scstep>
  <scstep>
   <time name="total">    1.24    0.77</time>
   <energy>
    <i name="e_fr_energy">     -0.48761104 </i>
    <i name="e_wo_entrp">     -0.48761104 </i>
    <i name="e_0_energy">     -0.48761104 </i>
   </energy>
  </scstep>
  <scstep>
   <time name="total">    1.23    0.76</time>
   <energy>
    <i name="e_fr_energy">     -0.48965493 </i>
    <i name="e_wo_entrp">     -0.48965493 </i>
    <i name="e_0_energy">     -0.48965493 </i>
   </energy>
  </scstep>
  <scstep>
   <time name="total">    1.22    0.76</time>
   <energy>
    <i name="e_fr_energy">     -0.48984595 </i>
    <i name="e_wo_entrp">     -0.48984595 </i>
    <i name="e_0_energy">     -0.48984595 </i>
   </energy>
  </scstep>
  <scstep>
   <time name="total">    1.24    0.78</time>
   <energy>
    <i name="e_fr_energy">     -0.48985487 </i>
    <i name="e_wo_entrp">     -0.48985487 </i>
    <i name="e_0_energy">     -0.48985487 </i>
   </energy>
  </scstep>
  <scstep>
   <time name="total">    1.24    0.77</time>
   <energy>
    <i name="e_fr_energy">     -0.48985518 </i>
    <i name="e_wo_entrp">     -0.48985518 </i>
    <i name="e_0_energy">     -0.48985518 </i>
   </energy>
  </scstep>
  <scstep>
   <time name="total">    1.20    0.74</time>
   <energy>
    <i name="e_fr_energy">     -0.48985520 </i>
    <i name="e_wo_entrp">     -0.48985520 </i>
    <i name="e_0_energy">     -0.48985520 </i>
   </energy>
  </scstep>
  <scstep>
   <time name="total">    1.14    0.69</time>
   <energy>
    <i name="e_fr_energy">     -0.48985520 </i>
    <i name="e_wo_entrp">     -0.48985520 </i>
    <i name="e_0_energy">     -0.48985520 </i>
   </energy>
  </scstep>
  <scstep>
   <time name="total">    1.13    0.68</time>
   <energy>
    <i name="e_fr_energy">     -0.48985520 </i>
    <i name="e_wo_entrp">     -0.48985520 </i>
    <i name="e_0_energy">     -0.48985520 </i>
   </energy>
  </scstep>
  <scstep>
   <time name="total">    1.12    0.67</time>
   <energy>
    <i name="e_fr_energy">     -0.48985520 </i>
    <i name="e_wo_entrp">     -0.48985520 </i>
    <i name="e_0_energy">     -0.48985520 </i>
   </energy>
  </scstep>
  <scstep>
   <time name="total">    1.12    0.66</time>
   <energy>
    <i name="e_fr_energy">     -0.48985520 </i>
    <i name="e_wo_entrp">     -0.48985520 </i>
    <i name="e_0_energy">     -0.48985520 </i>
   </energy>
  </scstep>
  <varray name="dielectric_ipa" >
   <v>       2.58975921      -0.00000011       0.00000000 </v>
   <v>       0.00000011       2.58975921       0.00000000 </v>
   <v>       0.00000000       0.00000000       2.60380035 </v>
  </varray>
  <kpoints>
   <generation param="Gamma">
    <v type="int" name="divisions">       4        4        4 </v>
    <v name="usershift">      0.00000000       0.00000000       0.00000000 </v>
    <v name="genvec1">      0.25000000       0.00000000       0.00000000 </v>
    <v name="genvec2">      0.00000000       0.25000000       0.00000000 </v>
    <v name="genvec3">      0.00000000       0.00000000       0.25000000 </v>
    <v name="shift">      0.00000000       0.00000000       0.00000000 </v>
   </generation>
   <varray name="kpointlist" >
    <v>       0.00000000       0.00000000       0.00000000 </v>
    <v>       0.25000000       0.00000000       0.00000000 </v>
    <v>       0.00000000       0.25000000       0.00000000 </v>
    <v>      -0.25000000       0.25000000       0.00000000 </v>
    <v>       0.50000000       0.00000000       0.00000000 </v>
    <v>       0.00000000       0.50000000       0.00000000 </v>
    <v>       0.50000000       0.50000000       0.00000000 </v>
    <v>       0.25000000       0.25000000       0.00000000 </v>
    <v>      -0.25000000       0.50000000       0.00000000 </v>
    <v>       0.50000000       0.25000000       0.00000000 </v>
    <v>       0.00000000       0.00000000       0.25000000 </v>
    <v>       0.25000000       0.00000000       0.25000000 </v>
    <v>       0.00000000       0.25000000       0.25000000 </v>
    <v>      -0.25000000       0.25000000       0.25000000 </v>
    <v>      -0.25000000       0.00000000       0.25000000 </v>
    <v>       0.00000000      -0.25000000       0.25000000 </v>
    <v>       0.25000000      -0.25000000       0.25000000 </v>
    <v>       0.50000000       0.00000000       0.25000000 </v>
    <v>       0.00000000       0.50000000       0.25000000 </v>
    <v>       0.50000000       0.50000000       0.25000000 </v>
    <v>       0.25000000       0.25000000       0.25000000 </v>
    <v>      -0.25000000       0.50000000       0.25000000 </v>
    <v>       0.50000000       0.25000000       0.25000000 </v>
    <v>      -0.25000000      -0.25000000       0.25000000 </v>
    <v>       0.25000000       0.50000000       0.25000000 </v>
    <v>       0.50000000      -0.25000000       0.25000000 </v>
    <v>       0.00000000       0.00000000       0.50000000 </v>
    <v>       0.25000000       0.00000000       0.50000000 </v>
    <v>       0.00000000       0.25000000       0.50000000 </v>
    <v>      -0.25000000       0.25000000       0.50000000 </v>
    <v>       0.50000000       0.00000000       0.50000000 </v>
    <v>       0.00000000       0.50000000       0.50000000 </v>
    <v>       0.50000000       0.50000000       0.50000000 </v>
    <v>       0.25000000       0.25000000       0.50000000 </v>
    <v>      -0.25000000       0.50000000       0.50000000 </v>
    <v>       0.50000000       0.25000000       0.50000000 </v>
   </varray>
   <varray name="weights" >
    <v>       0.01562500 </v>
    <v>       0.03125000 </v>
    <v>       0.03125000 </v>
    <v>       0.03125000 </v>
    <v>       0.01562500 </v>
    <v>       0.01562500 </v>
    <v>       0.01562500 </v>
    <v>       0.03125000 </v>
    <v>       0.03125000 </v>
    <v>       0.03125000 </v>
    <v>       0.03125000 </v>
    <v>       0.03125000 </v>
    <v>       0.03125000 </v>
    <v>       0.03125000 </v>
    <v>       0.03125000 </v>
    <v>       0.03125000 </v>
    <v>       0.03125000 </v>
    <v>       0.03125000 </v>
    <v>       0.03125000 </v>
    <v>       0.03125000 </v>
    <v>       0.03125000 </v>
    <v>       0.03125000 </v>
    <v>       0.03125000 </v>
    <v>       0.03125000 </v>
    <v>       0.03125000 </v>
    <v>       0.03125000 </v>
    <v>       0.01562500 </v>
    <v>       0.03125000 </v>
    <v>       0.03125000 </v>
    <v>       0.03125000 </v>
    <v>       0.01562500 </v>
    <v>       0.01562500 </v>
    <v>       0.01562500 </v>
    <v>       0.03125000 </v>
    <v>       0.03125000 </v>
    <v>       0.03125000 </v>
   </varray>
  </kpoints>
  <scstep>
   <time name="total">    2.22    1.77</time>
   <energy>
    <i name="e_fr_energy">     -0.48312401 </i>
    <i name="e_wo_entrp">     -0.48312401 </i>
    <i name="e_0_energy">     -0.48312401 </i>
   </energy>
  </scstep>
  <scstep>
   <time name="total">    2.30    1.83</time>
   <energy>
    <i name="e_fr_energy">     -0.48537174 </i>
    <i name="e_wo_entrp">     -0.48537174 </i>
    <i name="e_0_energy">     -0.48537174 </i>
   </energy>
  </scstep>
  <scstep>
   <time name="total">    2.34    1.86</time>
   <energy>
    <i name="e_fr_energy">     -0.46517897 </i>
    <i name="e_wo_entrp">     -0.46517897 </i>
    <i name="e_0_energy">     -0.46517897 </i>
   </energy>
  </scstep>
  <scstep>
   <time name="total">    2.34    1.87</time>
   <energy>
    <i name="e_fr_energy">     -0.47597707 </i>
    <i name="e_wo_entrp">     -0.47597707 </i>
    <i name="e_0_energy">     -0.47597707 </i>
   </energy>
  </scstep>
  <scstep>
   <time name="total">    2.33    1.86</time>
   <energy>
    <i name="e_fr_energy">     -0.49372312 </i>
    <i name="e_wo_entrp">     -0.49372312 </i>
    <i name="e_0_energy">     -0.49372312 </i>
   </energy>
  </scstep>
  <scstep>
   <time name="total">    2.30    1.82</time>
   <energy>
    <i name="e_fr_energy">     -0.49664597 </i>
    <i name="e_wo_entrp">     -0.49664597 </i>
    <i name="e_0_energy">     -0.49664597 </i>
   </energy>
  </scstep>
  <scstep>
   <time name="total">    2.34    1.87</time>
   <energy>
    <i name="e_fr_energy">     -0.49688282 </i>
    <i name="e_wo_entrp">     -0.49688282 </i>
    <i name="e_0_energy">     -0.49688282 </i>
   </energy>
  </scstep>
  <scstep>
   <time name="total">    2.32    1.85</time>
   <energy>
    <i name="e_fr_energy">     -0.49711663 </i>
    <i name="e_wo_entrp">     -0.49711663 </i>
    <i name="e_0_energy">     -0.49711663 </i>
   </energy>
  </scstep>
  <scstep>
   <time name="total">    2.35    1.87</time>
   <energy>
    <i name="e_fr_energy">     -0.49717905 </i>
    <i name="e_wo_entrp">     -0.49717905 </i>
    <i name="e_0_energy">     -0.49717905 </i>
   </energy>
  </scstep>
  <scstep>
   <time name="total">    2.39    1.91</time>
   <energy>
    <i name="e_fr_energy">     -0.49717489 </i>
    <i name="e_wo_entrp">     -0.49717489 </i>
    <i name="e_0_energy">     -0.49717489 </i>
   </energy>
  </scstep>
  <scstep>
   <time name="total">    2.34    1.87</time>
   <energy>
    <i name="e_fr_energy">     -0.49717572 </i>
    <i name="e_wo_entrp">     -0.49717572 </i>
    <i name="e_0_energy">     -0.49717572 </i>
   </energy>
  </scstep>
  <scstep>
   <time name="total">    2.29    1.81</time>
   <energy>
    <i name="e_fr_energy">     -0.49717566 </i>
    <i name="e_wo_entrp">     -0.49717566 </i>
    <i name="e_0_energy">     -0.49717566 </i>
   </energy>
  </scstep>
  <scstep>
   <time name="total">    2.30    1.82</time>
   <energy>
    <i name="e_fr_energy">     -0.49717576 </i>
    <i name="e_wo_entrp">     -0.49717576 </i>
    <i name="e_0_energy">     -0.49717576 </i>
   </energy>
  </scstep>
  <scstep>
   <time name="total">    2.30    1.82</time>
   <energy>
    <i name="e_fr_energy">     -0.49717565 </i>
    <i name="e_wo_entrp">     -0.49717565 </i>
    <i name="e_0_energy">     -0.49717565 </i>
   </energy>
  </scstep>
  <kpoints>
   <generation param="Gamma">
    <v type="int" name="divisions">       4        4        4 </v>
    <v name="usershift">      0.00000000       0.00000000       0.00000000 </v>
    <v name="genvec1">      0.25000000       0.00000000       0.00000000 </v>
    <v name="genvec2">      0.00000000       0.25000000       0.00000000 </v>
    <v name="genvec3">      0.00000000       0.00000000       0.25000000 </v>
    <v name="shift">      0.00000000       0.00000000       0.00000000 </v>
   </generation>
   <varray name="kpointlist" >
    <v>       0.00000000       0.00000000       0.00000000 </v>
    <v>       0.25000000       0.00000000       0.00000000 </v>
    <v>       0.00000000       0.25000000       0.00000000 </v>
    <v>      -0.25000000       0.25000000       0.00000000 </v>
    <v>       0.50000000       0.00000000       0.00000000 </v>
    <v>       0.00000000       0.50000000       0.00000000 </v>
    <v>       0.50000000       0.50000000       0.00000000 </v>
    <v>       0.25000000       0.25000000       0.00000000 </v>
    <v>      -0.25000000       0.50000000       0.00000000 </v>
    <v>       0.50000000       0.25000000       0.00000000 </v>
    <v>       0.00000000       0.00000000       0.25000000 </v>
    <v>       0.25000000       0.00000000       0.25000000 </v>
    <v>       0.00000000       0.25000000       0.25000000 </v>
    <v>      -0.25000000       0.25000000       0.25000000 </v>
    <v>      -0.25000000       0.00000000       0.25000000 </v>
    <v>       0.00000000      -0.25000000       0.25000000 </v>
    <v>       0.25000000      -0.25000000       0.25000000 </v>
    <v>       0.50000000       0.00000000       0.25000000 </v>
    <v>       0.00000000       0.50000000       0.25000000 </v>
    <v>       0.50000000       0.50000000       0.25000000 </v>
    <v>       0.25000000       0.25000000       0.25000000 </v>
    <v>      -0.25000000       0.50000000       0.25000000 </v>
    <v>       0.50000000       0.25000000       0.25000000 </v>
    <v>      -0.25000000      -0.25000000       0.25000000 </v>
    <v>       0.25000000       0.50000000       0.25000000 </v>
    <v>       0.50000000      -0.25000000       0.25000000 </v>
    <v>       0.00000000       0.00000000       0.50000000 </v>
    <v>       0.25000000       0.00000000       0.50000000 </v>
    <v>       0.00000000       0.25000000       0.50000000 </v>
    <v>      -0.25000000       0.25000000       0.50000000 </v>
    <v>       0.50000000       0.00000000       0.50000000 </v>
    <v>       0.00000000       0.50000000       0.50000000 </v>
    <v>       0.50000000       0.50000000       0.50000000 </v>
    <v>       0.25000000       0.25000000       0.50000000 </v>
    <v>      -0.25000000       0.50000000       0.50000000 </v>
    <v>       0.50000000       0.25000000       0.50000000 </v>
   </varray>
   <varray name="weights" >
    <v>       0.01562500 </v>
    <v>       0.03125000 </v>
    <v>       0.03125000 </v>
    <v>       0.03125000 </v>
    <v>       0.01562500 </v>
    <v>       0.01562500 </v>
    <v>       0.01562500 </v>
    <v>       0.03125000 </v>
    <v>       0.03125000 </v>
    <v>       0.03125000 </v>
    <v>       0.03125000 </v>
    <v>       0.03125000 </v>
    <v>       0.03125000 </v>
    <v>       0.03125000 </v>
    <v>       0.03125000 </v>
    <v>       0.03125000 </v>
    <v>       0.03125000 </v>
    <v>       0.03125000 </v>
    <v>       0.03125000 </v>
    <v>       0.03125000 </v>
    <v>       0.03125000 </v>
    <v>       0.03125000 </v>
    <v>       0.03125000 </v>
    <v>       0.03125000 </v>
    <v>       0.03125000 </v>
    <v>       0.03125000 </v>
    <v>       0.01562500 </v>
    <v>       0.03125000 </v>
    <v>       0.03125000 </v>
    <v>       0.03125000 </v>
    <v>       0.01562500 </v>
    <v>       0.01562500 </v>
    <v>       0.01562500 </v>
    <v>       0.03125000 </v>
    <v>       0.03125000 </v>
    <v>       0.03125000 </v>
   </varray>
  </kpoints>
  <scstep>
   <time name="total">    2.23    1.77</time>
   <energy>
    <i name="e_fr_energy">     -0.48316538 </i>
    <i name="e_wo_entrp">     -0.48316538 </i>
    <i name="e_0_energy">     -0.48316538 </i>
   </energy>
  </scstep>
  <scstep>
   <time name="total">    2.31    1.84</time>
   <energy>
    <i name="e_fr_energy">     -0.48537006 </i>
    <i name="e_wo_entrp">     -0.48537006 </i>
    <i name="e_0_energy">     -0.48537006 </i>
   </energy>
  </scstep>
  <scstep>
   <time name="total">    2.32    1.85</time>
   <energy>
    <i name="e_fr_energy">     -0.46516913 </i>
    <i name="e_wo_entrp">     -0.46516913 </i>
    <i name="e_0_energy">     -0.46516913 </i>
   </energy>
  </scstep>
  <scstep>
   <time name="total">    2.33    1.85</time>
   <energy>
    <i name="e_fr_energy">     -0.47602538 </i>
    <i name="e_wo_entrp">     -0.47602538 </i>
    <i name="e_0_energy">     -0.47602538 </i>
   </energy>
  </scstep>
  <scstep>
   <time name="total">    2.32    1.85</time>
   <energy>
    <i name="e_fr_energy">     -0.49375804 </i>
    <i name="e_wo_entrp">     -0.49375804 </i>
    <i name="e_0_energy">     -0.49375804 </i>
   </energy>
  </scstep>
  <scstep>
   <time name="total">    2.30    1.82</time>
   <energy>
    <i name="e_fr_energy">     -0.49667159 </i>
    <i name="e_wo_entrp">     -0.49667159 </i>
    <i name="e_0_energy">     -0.49667159 </i>
   </energy>
  </scstep>
  <scstep>
   <time name="total">    2.35    1.88</time>
   <energy>
    <i name="e_fr_energy">     -0.49691434 </i>
    <i name="e_wo_entrp">     -0.49691434 </i>
    <i name="e_0_energy">     -0.49691434 </i>
   </energy>
  </scstep>
  <scstep>
   <time name="total">    2.35    1.87</time>
   <energy>
    <i name="e_fr_energy">     -0.49714561 </i>
    <i name="e_wo_entrp">     -0.49714561 </i>
    <i name="e_0_energy">     -0.49714561 </i>
   </energy>
  </scstep>
  <scstep>
   <time name="total">    2.36    1.88</time>
   <energy>
    <i name="e_fr_energy">     -0.49721007 </i>
    <i name="e_wo_entrp">     -0.49721007 </i>
    <i name="e_0_energy">     -0.49721007 </i>
   </energy>
  </scstep>
  <scstep>
   <time name="total">    2.36    1.89</time>
   <energy>
    <i name="e_fr_energy">     -0.49720511 </i>
    <i name="e_wo_entrp">     -0.49720511 </i>
    <i name="e_0_energy">     -0.49720511 </i>
   </energy>
  </scstep>
  <scstep>
   <time name="total">    2.35    1.87</time>
   <energy>
    <i name="e_fr_energy">     -0.49720618 </i>
    <i name="e_wo_entrp">     -0.49720618 </i>
    <i name="e_0_energy">     -0.49720618 </i>
   </energy>
  </scstep>
  <scstep>
   <time name="total">    2.28    1.81</time>
   <energy>
    <i name="e_fr_energy">     -0.49720619 </i>
    <i name="e_wo_entrp">     -0.49720619 </i>
    <i name="e_0_energy">     -0.49720619 </i>
   </energy>
  </scstep>
  <kpoints>
   <generation param="Gamma">
    <v type="int" name="divisions">       4        4        4 </v>
    <v name="usershift">      0.00000000       0.00000000       0.00000000 </v>
    <v name="genvec1">      0.25000000       0.00000000       0.00000000 </v>
    <v name="genvec2">      0.00000000       0.25000000       0.00000000 </v>
    <v name="genvec3">      0.00000000       0.00000000       0.25000000 </v>
    <v name="shift">      0.00000000       0.00000000       0.00000000 </v>
   </generation>
   <varray name="kpointlist" >
    <v>       0.00000000       0.00000000       0.00000000 </v>
    <v>       0.25000000       0.00000000       0.00000000 </v>
    <v>       0.50000000       0.00000000       0.00000000 </v>
    <v>       0.25000000       0.25000000       0.00000000 </v>
    <v>       0.00000000       0.00000000       0.25000000 </v>
    <v>       0.25000000       0.00000000       0.25000000 </v>
    <v>       0.00000000       0.25000000       0.25000000 </v>
    <v>       0.50000000       0.00000000       0.25000000 </v>
    <v>       0.25000000       0.25000000       0.25000000 </v>
    <v>      -0.25000000       0.50000000       0.25000000 </v>
    <v>       0.00000000       0.00000000       0.50000000 </v>
    <v>       0.25000000       0.00000000       0.50000000 </v>
    <v>       0.50000000       0.00000000       0.50000000 </v>
    <v>       0.25000000       0.25000000       0.50000000 </v>
   </varray>
   <varray name="weights" >
    <v>       0.01562500 </v>
    <v>       0.09375000 </v>
    <v>       0.04687500 </v>
    <v>       0.09375000 </v>
    <v>       0.03125000 </v>
    <v>       0.09375000 </v>
    <v>       0.09375000 </v>
    <v>       0.09375000 </v>
    <v>       0.09375000 </v>
    <v>       0.09375000 </v>
    <v>       0.01562500 </v>
    <v>       0.09375000 </v>
    <v>       0.04687500 </v>
    <v>       0.09375000 </v>
   </varray>
  </kpoints>
  <scstep>
   <time name="total">    1.23    0.76</time>
   <energy>
    <i name="e_fr_energy">     -0.48761104 </i>
    <i name="e_wo_entrp">     -0.48761104 </i>
    <i name="e_0_energy">     -0.48761104 </i>
   </energy>
  </scstep>
  <scstep>
   <time name="total">    1.27    0.79</time>
   <energy>
    <i name="e_fr_energy">     -0.48965493 </i>
    <i name="e_wo_entrp">     -0.48965493 </i>
    <i name="e_0_energy">     -0.48965493 </i>
   </energy>
  </scstep>
  <scstep>
   <time name="total">    1.27    0.79</time>
   <energy>
    <i name="e_fr_energy">     -0.47441912 </i>
    <i name="e_wo_entrp">     -0.47441912 </i>
    <i name="e_0_energy">     -0.47441912 </i>
   </energy>
  </scstep>
  <scstep>
   <time name="total">    1.27    0.79</time>
   <energy>
    <i name="e_fr_energy">     -0.48763115 </i>
    <i name="e_wo_entrp">     -0.48763115 </i>
    <i name="e_0_energy">     -0.48763115 </i>
   </energy>
  </scstep>
  <scstep>
   <time name="total">    1.27    0.79</time>
   <energy>
    <i name="e_fr_energy">     -0.50387731 </i>
    <i name="e_wo_entrp">     -0.50387731 </i>
    <i name="e_0_energy">     -0.50387731 </i>
   </energy>
  </scstep>
  <scstep>
   <time name="total">    1.25    0.77</time>
   <energy>
    <i name="e_fr_energy">     -0.50671771 </i>
    <i name="e_wo_entrp">     -0.50671771 </i>
    <i name="e_0_energy">     -0.50671771 </i>
   </energy>
  </scstep>
  <scstep>
   <time name="total">    1.28    0.80</time>
   <energy>
    <i name="e_fr_energy">     -0.50696112 </i>
    <i name="e_wo_entrp">     -0.50696112 </i>
    <i name="e_0_energy">     -0.50696112 </i>
   </energy>
  </scstep>
  <scstep>
   <time name="total">    1.27    0.79</time>
   <energy>
    <i name="e_fr_energy">     -0.50722685 </i>
    <i name="e_wo_entrp">     -0.50722685 </i>
    <i name="e_0_energy">     -0.50722685 </i>
   </energy>
  </scstep>
  <scstep>
   <time name="total">    1.28    0.80</time>
   <energy>
    <i name="e_fr_energy">     -0.50724951 </i>
    <i name="e_wo_entrp">     -0.50724951 </i>
    <i name="e_0_energy">     -0.50724951 </i>
   </energy>
  </scstep>
  <scstep>
   <time name="total">    1.29    0.80</time>
   <energy>
    <i name="e_fr_energy">     -0.50725077 </i>
    <i name="e_wo_entrp">     -0.50725077 </i>
    <i name="e_0_energy">     -0.50725077 </i>
   </energy>
  </scstep>
  <scstep>
   <time name="total">    1.29    0.81</time>
   <energy>
    <i name="e_fr_energy">     -0.50724993 </i>
    <i name="e_wo_entrp">     -0.50724993 </i>
    <i name="e_0_energy">     -0.50724993 </i>
   </energy>
  </scstep>
  <scstep>
   <time name="total">    1.24    0.76</time>
   <energy>
    <i name="e_fr_energy">     -0.50725020 </i>
    <i name="e_wo_entrp">     -0.50725020 </i>
    <i name="e_0_energy">     -0.50725020 </i>
   </energy>
  </scstep>
  <scstep>
   <time name="total">    1.26    0.78</time>
   <energy>
    <i name="e_fr_energy">     -0.50725017 </i>
    <i name="e_wo_entrp">     -0.50725017 </i>
    <i name="e_0_energy">     -0.50725017 </i>
   </energy>
  </scstep>
  <scstep>
   <time name="total">    1.23    0.75</time>
   <energy>
    <i name="e_fr_energy">     -0.50725013 </i>
    <i name="e_wo_entrp">     -0.50725013 </i>
    <i name="e_0_energy">     -0.50725013 </i>
   </energy>
  </scstep>
  <kpoints>
   <generation param="Gamma">
    <v type="int" name="divisions">       4        4        4 </v>
    <v name="usershift">      0.00000000       0.00000000       0.00000000 </v>
    <v name="genvec1">      0.25000000       0.00000000       0.00000000 </v>
    <v name="genvec2">      0.00000000       0.25000000       0.00000000 </v>
    <v name="genvec3">      0.00000000       0.00000000       0.25000000 </v>
    <v name="shift">      0.00000000       0.00000000       0.00000000 </v>
   </generation>
   <varray name="kpointlist" >
    <v>       0.00000000       0.00000000       0.00000000 </v>
    <v>       0.25000000       0.00000000       0.00000000 </v>
    <v>       0.50000000       0.00000000       0.00000000 </v>
    <v>       0.25000000       0.25000000       0.00000000 </v>
    <v>       0.00000000       0.00000000       0.25000000 </v>
    <v>       0.25000000       0.00000000       0.25000000 </v>
    <v>       0.00000000       0.25000000       0.25000000 </v>
    <v>       0.50000000       0.00000000       0.25000000 </v>
    <v>       0.25000000       0.25000000       0.25000000 </v>
    <v>      -0.25000000       0.50000000       0.25000000 </v>
    <v>       0.00000000       0.00000000       0.50000000 </v>
    <v>       0.25000000       0.00000000       0.50000000 </v>
    <v>       0.50000000       0.00000000       0.50000000 </v>
    <v>       0.25000000       0.25000000       0.50000000 </v>
   </varray>
   <varray name="weights" >
    <v>       0.01562500 </v>
    <v>       0.09375000 </v>
    <v>       0.04687500 </v>
    <v>       0.09375000 </v>
    <v>       0.03125000 </v>
    <v>       0.09375000 </v>
    <v>       0.09375000 </v>
    <v>       0.09375000 </v>
    <v>       0.09375000 </v>
    <v>       0.09375000 </v>
    <v>       0.01562500 </v>
    <v>       0.09375000 </v>
    <v>       0.04687500 </v>
    <v>       0.09375000 </v>
   </varray>
  </kpoints>
  <varray name="dielectric_dft" >
   <v>       2.48081991      -0.00000055       0.00000000 </v>
   <v>       0.00000055       2.48081991       0.00000000 </v>
   <v>       0.00000000       0.00000000       2.51333953 </v>
  </varray>
  <varray name="epsilon" >
   <v>       2.48081991      -0.00000055       0.00000000 </v>
   <v>       0.00000055       2.48081991       0.00000000 </v>
   <v>       0.00000000       0.00000000       2.51333953 </v>
  </varray>
  <kpoints>
   <generation param="Gamma">
    <v type="int" name="divisions">       4        4        4 </v>
    <v name="usershift">      0.00000000       0.00000000       0.00000000 </v>
    <v name="genvec1">      0.25000000       0.00000000       0.00000000 </v>
    <v name="genvec2">      0.00000000       0.25000000       0.00000000 </v>
    <v name="genvec3">      0.00000000       0.00000000       0.25000000 </v>
    <v name="shift">      0.00000000       0.00000000       0.00000000 </v>
   </generation>
   <varray name="kpointlist" >
    <v>       0.00000000       0.00000000       0.00000000 </v>
    <v>       0.25000000       0.00000000       0.00000000 </v>
    <v>       0.50000000       0.00000000       0.00000000 </v>
    <v>       0.25000000       0.25000000       0.00000000 </v>
    <v>       0.00000000       0.00000000       0.25000000 </v>
    <v>       0.25000000       0.00000000       0.25000000 </v>
    <v>       0.00000000       0.25000000       0.25000000 </v>
    <v>       0.50000000       0.00000000       0.25000000 </v>
    <v>       0.25000000       0.25000000       0.25000000 </v>
    <v>      -0.25000000       0.50000000       0.25000000 </v>
    <v>       0.00000000       0.00000000       0.50000000 </v>
    <v>       0.25000000       0.00000000       0.50000000 </v>
    <v>       0.50000000       0.00000000       0.50000000 </v>
    <v>       0.25000000       0.25000000       0.50000000 </v>
   </varray>
   <varray name="weights" >
    <v>       0.01562500 </v>
    <v>       0.09375000 </v>
    <v>       0.04687500 </v>
    <v>       0.09375000 </v>
    <v>       0.03125000 </v>
    <v>       0.09375000 </v>
    <v>       0.09375000 </v>
    <v>       0.09375000 </v>
    <v>       0.09375000 </v>
    <v>       0.09375000 </v>
    <v>       0.01562500 </v>
    <v>       0.09375000 </v>
    <v>       0.04687500 </v>
    <v>       0.09375000 </v>
   </varray>
  </kpoints>
  <array name="born_charges" >
   <dimension dim="1">ion</dimension>
   <set>
    <v>       2.98054113       0.00019986       0.00038091 </v>
    <v>      -0.00007947       3.62048954      -0.32133215 </v>
    <v>      -0.00117719       0.27802977       3.42535623 </v>
   </set>
   <set>
    <v>       3.46055457       0.27721535       0.27809135 </v>
    <v>       0.27693603       3.14047610       0.16099595 </v>
    <v>      -0.24019224      -0.14003436       3.42535623 </v>
   </set>
   <set>
    <v>       3.46045030      -0.27699622      -0.27847225 </v>
    <v>      -0.27727555       3.14058037       0.16033620 </v>
    <v>       0.24136944      -0.13799540       3.42535623 </v>
   </set>
   <set>
    <v>      -1.31133372      -0.49346582      -0.30994078 </v>
    <v>      -0.43609528      -1.98915547      -0.67873661 </v>
    <v>      -0.24356311      -0.72128394      -1.71276607 </v>
   </set>
   <set>
    <v>      -2.22221179      -0.08980042       0.74277354 </v>
    <v>      -0.03242988      -1.07827740       0.07095171 </v>
    <v>       0.74643177       0.14971013      -1.71276607 </v>
   </set>
   <set>
    <v>      -1.41718827       0.49721043      -0.43283275 </v>
    <v>       0.55458097      -1.88330092       0.60778490 </v>
    <v>      -0.50286866       0.57157381      -1.71276607 </v>
   </set>
   <set>
    <v>      -1.31095381       0.49323872       0.31048195 </v>
    <v>       0.43614750      -1.98958767      -0.67925117 </v>
    <v>       0.24331968      -0.72163085      -1.71259016 </v>
   </set>
   <set>
    <v>      -2.22236524       0.09005614      -0.74348974 </v>
    <v>       0.03296492      -1.07817624       0.07074033 </v>
    <v>      -0.74661049       0.15009440      -1.71259016 </v>
   </set>
   <set>
    <v>      -1.41749317      -0.49765803       0.43300779 </v>
    <v>      -0.55474925      -1.88304831       0.60851084 </v>
    <v>       0.50329080       0.57153645      -1.71259016 </v>
   </set>
  </array>
  <time name="totalsc">  223.90  132.64</time>
  <eigenvalues>
   <array>
    <dimension dim="1">band</dimension>
    <dimension dim="2">kpoint</dimension>
    <dimension dim="3">spin</dimension>
    <field>eigene</field>
    <field>occ</field>
    <set>
     <set comment="spin 1">
      <set comment="kpoint 1">
       <r>  -18.1719    1.0000 </r>
       <r>  -16.6201    1.0000 </r>
       <r>  -16.6201    1.0000 </r>
       <r>  -15.9516    1.0000 </r>
       <r>  -15.9423    1.0000 </r>
       <r>  -15.9423    1.0000 </r>
       <r>   -6.8789    1.0000 </r>
       <r>   -6.8789    1.0000 </r>
       <r>   -4.1465    1.0000 </r>
       <r>   -4.0639    1.0000 </r>
       <r>   -3.9112    1.0000 </r>
       <r>   -3.9112    1.0000 </r>
       <r>   -1.6856    1.0000 </r>
       <r>   -1.6856    1.0000 </r>
       <r>   -1.3748    1.0000 </r>
       <r>   -1.1506    1.0000 </r>
       <r>   -0.1554    1.0000 </r>
       <r>   -0.1554    1.0000 </r>
       <r>   -0.0980    1.0000 </r>
       <r>    0.2613    1.0000 </r>
       <r>    0.2613    1.0000 </r>
       <r>    0.4586    1.0000 </r>
       <r>    1.0042    1.0000 </r>
       <r>    1.0042    1.0000 </r>
       <r>    7.3235    0.0000 </r>
       <r>   10.6085    0.0000 </r>
       <r>   10.6085    0.0000 </r>
       <r>   11.2366    0.0000 </r>
       <r>   11.2366    0.0000 </r>
      </set>
      <set comment="kpoint 2">
       <r>  -17.9880    1.0000 </r>
       <r>  -16.8197    1.0000 </r>
       <r>  -16.5937    1.0000 </r>
       <r>  -16.0189    1.0000 </r>
       <r>  -15.9757    1.0000 </r>
       <r>  -15.9422    1.0000 </r>
       <r>   -6.9569    1.0000 </r>
       <r>   -6.5092    1.0000 </r>
       <r>   -4.2176    1.0000 </r>
       <r>   -4.1542    1.0000 </r>
       <r>   -4.0326    1.0000 </r>
       <r>   -3.6189    1.0000 </r>
       <r>   -1.8729    1.0000 </r>
       <r>   -1.5567    1.0000 </r>
       <r>   -1.3477    1.0000 </r>
       <r>   -0.8969    1.0000 </r>
       <r>   -0.6972    1.0000 </r>
       <r>   -0.2392    1.0000 </r>
       <r>   -0.1600    1.0000 </r>
       <r>    0.1793    1.0000 </r>
       <r>    0.2769    1.0000 </r>
       <r>    0.4210    1.0000 </r>
       <r>    1.0535    1.0000 </r>
       <r>    1.1416    1.0000 </r>
       <r>    8.2330    0.0000 </r>
       <r>   10.6697    0.0000 </r>
       <r>   10.7200    0.0000 </r>
       <r>   11.2073    0.0000 </r>
       <r>   11.4827    0.0000 </r>
      </set>
      <set comment="kpoint 3">
       <r>  -17.6650    1.0000 </r>
       <r>  -17.1820    1.0000 </r>
       <r>  -16.5648    1.0000 </r>
       <r>  -16.0451    1.0000 </r>
       <r>  -16.0008    1.0000 </r>
       <r>  -15.9680    1.0000 </r>
       <r>   -7.0306    1.0000 </r>
       <r>   -6.0439    1.0000 </r>
       <r>   -4.5561    1.0000 </r>
       <r>   -4.0961    1.0000 </r>
       <r>   -4.0891    1.0000 </r>
       <r>   -3.2818    1.0000 </r>
       <r>   -1.8239    1.0000 </r>
       <r>   -1.6227    1.0000 </r>
       <r>   -1.4348    1.0000 </r>
       <r>   -1.0012    1.0000 </r>
       <r>   -0.7924    1.0000 </r>
       <r>   -0.4795    1.0000 </r>
       <r>   -0.2878    1.0000 </r>
       <r>    0.1955    1.0000 </r>
       <r>    0.2818    1.0000 </r>
       <r>    0.5595    1.0000 </r>
       <r>    1.0150    1.0000 </r>
       <r>    1.2412    1.0000 </r>
       <r>    9.6352    0.0000 </r>
       <r>   10.3716    0.0000 </r>
       <r>   10.9664    0.0000 </r>
       <r>   10.9886    0.0000 </r>
       <r>   11.9980    0.0000 </r>
      </set>
      <set comment="kpoint 4">
       <r>  -17.6754    1.0000 </r>
       <r>  -17.1516    1.0000 </r>
       <r>  -16.5957    1.0000 </r>
       <r>  -16.0405    1.0000 </r>
       <r>  -15.9985    1.0000 </r>
       <r>  -15.9647    1.0000 </r>
       <r>   -7.0589    1.0000 </r>
       <r>   -5.9058    1.0000 </r>
       <r>   -4.8494    1.0000 </r>
       <r>   -4.0740    1.0000 </r>
       <r>   -3.9327    1.0000 </r>
       <r>   -3.2896    1.0000 </r>
       <r>   -1.7833    1.0000 </r>
       <r>   -1.6281    1.0000 </r>
       <r>   -1.4651    1.0000 </r>
       <r>   -0.8973    1.0000 </r>
       <r>   -0.8478    1.0000 </r>
       <r>   -0.4277    1.0000 </r>
       <r>   -0.2437    1.0000 </r>
       <r>   -0.0086    1.0000 </r>
       <r>    0.2524    1.0000 </r>
       <r>    0.6679    1.0000 </r>
       <r>    0.9803    1.0000 </r>
       <r>    1.2629    1.0000 </r>
       <r>    9.4762    0.0000 </r>
       <r>   10.7358    0.0000 </r>
       <r>   10.7718    0.0000 </r>
       <r>   11.4411    0.0000 </r>
       <r>   11.5796    0.0000 </r>
      </set>
      <set comment="kpoint 5">
       <r>  -18.0467    1.0000 </r>
       <r>  -17.1800    1.0000 </r>
       <r>  -16.1696    1.0000 </r>
       <r>  -15.9556    1.0000 </r>
       <r>  -15.9536    1.0000 </r>
       <r>  -15.9227    1.0000 </r>
       <r>   -7.6522    1.0000 </r>
       <r>   -5.8674    1.0000 </r>
       <r>   -4.3682    1.0000 </r>
       <r>   -4.1815    1.0000 </r>
       <r>   -4.1301    1.0000 </r>
       <r>   -3.5528    1.0000 </r>
       <r>   -1.7666    1.0000 </r>
       <r>   -1.4402    1.0000 </r>
       <r>   -1.3093    1.0000 </r>
       <r>   -0.9473    1.0000 </r>
       <r>   -0.4233    1.0000 </r>
       <r>   -0.2928    1.0000 </r>
       <r>   -0.1653    1.0000 </r>
       <r>   -0.1614    1.0000 </r>
       <r>    0.1777    1.0000 </r>
       <r>    0.6299    1.0000 </r>
       <r>    1.0940    1.0000 </r>
       <r>    1.1786    1.0000 </r>
       <r>    7.9359    0.0000 </r>
       <r>   10.4178    0.0000 </r>
       <r>   10.6311    0.0000 </r>
       <r>   10.6443    0.0000 </r>
       <r>   11.6493    0.0000 </r>
      </set>
      <set comment="kpoint 6">
       <r>  -17.8795    1.0000 </r>
       <r>  -17.1561    1.0000 </r>
       <r>  -16.3550    1.0000 </r>
       <r>  -16.0143    1.0000 </r>
       <r>  -15.9924    1.0000 </r>
       <r>  -15.9404    1.0000 </r>
       <r>   -7.3280    1.0000 </r>
       <r>   -5.9249    1.0000 </r>
       <r>   -4.6326    1.0000 </r>
       <r>   -4.0961    1.0000 </r>
       <r>   -3.8304    1.0000 </r>
       <r>   -3.6546    1.0000 </r>
       <r>   -1.9391    1.0000 </r>
       <r>   -1.4329    1.0000 </r>
       <r>   -1.3054    1.0000 </r>
       <r>   -0.9654    1.0000 </r>
       <r>   -0.6437    1.0000 </r>
       <r>   -0.3021    1.0000 </r>
       <r>   -0.1670    1.0000 </r>
       <r>    0.0580    1.0000 </r>
       <r>    0.3182    1.0000 </r>
       <r>    0.4879    1.0000 </r>
       <r>    1.0121    1.0000 </r>
       <r>    1.1509    1.0000 </r>
       <r>    8.7073    0.0000 </r>
       <r>   10.4520    0.0000 </r>
       <r>   10.7348    0.0000 </r>
       <r>   10.9638    0.0000 </r>
       <r>   11.6991    0.0000 </r>
      </set>
      <set comment="kpoint 7">
       <r>  -17.8823    1.0000 </r>
       <r>  -17.1426    1.0000 </r>
       <r>  -16.3863    1.0000 </r>
       <r>  -16.0151    1.0000 </r>
       <r>  -15.9595    1.0000 </r>
       <r>  -15.9515    1.0000 </r>
       <r>   -7.3302    1.0000 </r>
       <r>   -5.9299    1.0000 </r>
       <r>   -4.6333    1.0000 </r>
       <r>   -4.1189    1.0000 </r>
       <r>   -3.8572    1.0000 </r>
       <r>   -3.5702    1.0000 </r>
       <r>   -1.8926    1.0000 </r>
       <r>   -1.3904    1.0000 </r>
       <r>   -1.3601    1.0000 </r>
       <r>   -1.1093    1.0000 </r>
       <r>   -0.6941    1.0000 </r>
       <r>   -0.2004    1.0000 </r>
       <r>   -0.1045    1.0000 </r>
       <r>    0.0408    1.0000 </r>
       <r>    0.3868    1.0000 </r>
       <r>    0.4107    1.0000 </r>
       <r>    0.9059    1.0000 </r>
       <r>    1.2524    1.0000 </r>
       <r>    8.6702    0.0000 </r>
       <r>   10.5744    0.0000 </r>
       <r>   10.8872    0.0000 </r>
       <r>   11.0275    0.0000 </r>
       <r>   11.5534    0.0000 </r>
      </set>
      <set comment="kpoint 8">
       <r>  -17.6282    1.0000 </r>
       <r>  -17.1623    1.0000 </r>
       <r>  -16.6338    1.0000 </r>
       <r>  -16.0519    1.0000 </r>
       <r>  -16.0073    1.0000 </r>
       <r>  -15.9588    1.0000 </r>
       <r>   -6.9564    1.0000 </r>
       <r>   -5.9804    1.0000 </r>
       <r>   -4.8533    1.0000 </r>
       <r>   -4.0802    1.0000 </r>
       <r>   -3.7934    1.0000 </r>
       <r>   -3.4626    1.0000 </r>
       <r>   -1.8854    1.0000 </r>
       <r>   -1.7936    1.0000 </r>
       <r>   -1.2421    1.0000 </r>
       <r>   -1.0499    1.0000 </r>
       <r>   -0.5804    1.0000 </r>
       <r>   -0.4813    1.0000 </r>
       <r>   -0.1350    1.0000 </r>
       <r>    0.1304    1.0000 </r>
       <r>    0.3593    1.0000 </r>
       <r>    0.5973    1.0000 </r>
       <r>    0.8240    1.0000 </r>
       <r>    1.1739    1.0000 </r>
       <r>    9.9103    0.0000 </r>
       <r>   10.4311    0.0000 </r>
       <r>   10.8818    0.0000 </r>
       <r>   11.3082    0.0000 </r>
       <r>   11.8026    0.0000 </r>
      </set>
      <set comment="kpoint 9">
       <r>  -17.6299    1.0000 </r>
       <r>  -17.1632    1.0000 </r>
[...]
       <r>    1.2156    1.0000 </r>
       <r>    9.3085    0.0000 </r>
       <r>    9.3085    0.0000 </r>
       <r>   10.4336    0.0000 </r>
       <r>   10.9941    0.0000 </r>
       <r>   10.9941    0.0000 </r>
      </set>
      <set comment="kpoint 12">
       <r>  -17.6424    1.0000 </r>
       <r>  -17.5018    1.0000 </r>
       <r>  -16.2496    1.0000 </r>
       <r>  -16.0272    1.0000 </r>
       <r>  -15.9734    1.0000 </r>
       <r>  -15.9426    1.0000 </r>
       <r>   -7.5168    1.0000 </r>
       <r>   -5.3543    1.0000 </r>
       <r>   -5.0127    1.0000 </r>
       <r>   -4.0964    1.0000 </r>
       <r>   -3.9726    1.0000 </r>
       <r>   -3.4571    1.0000 </r>
       <r>   -1.7490    1.0000 </r>
       <r>   -1.7305    1.0000 </r>
       <r>   -1.2092    1.0000 </r>
       <r>   -0.9365    1.0000 </r>
       <r>   -0.7530    1.0000 </r>
       <r>   -0.2542    1.0000 </r>
       <r>   -0.1573    1.0000 </r>
       <r>    0.0431    1.0000 </r>
       <r>    0.1863    1.0000 </r>
       <r>    0.7963    1.0000 </r>
       <r>    0.8304    1.0000 </r>
       <r>    1.1410    1.0000 </r>
       <r>    9.6763    0.0000 </r>
       <r>    9.8378    0.0000 </r>
       <r>   10.7238    0.0000 </r>
       <r>   11.0287    0.0000 </r>
       <r>   11.3862    0.0000 </r>
      </set>
      <set comment="kpoint 13">
       <r>  -17.5872    1.0000 </r>
       <r>  -17.1414    1.0000 </r>
       <r>  -16.7050    1.0000 </r>
       <r>  -16.0736    1.0000 </r>
       <r>  -15.9932    1.0000 </r>
       <r>  -15.9590    1.0000 </r>
       <r>   -6.8760    1.0000 </r>
       <r>   -5.9141    1.0000 </r>
       <r>   -5.0478    1.0000 </r>
       <r>   -3.9970    1.0000 </r>
       <r>   -3.7051    1.0000 </r>
       <r>   -3.6150    1.0000 </r>
       <r>   -1.9309    1.0000 </r>
       <r>   -1.9232    1.0000 </r>
       <r>   -1.1444    1.0000 </r>
       <r>   -0.8283    1.0000 </r>
       <r>   -0.7467    1.0000 </r>
       <r>   -0.2749    1.0000 </r>
       <r>    0.0229    1.0000 </r>
       <r>    0.1890    1.0000 </r>
       <r>    0.3980    1.0000 </r>
       <r>    0.4039    1.0000 </r>
       <r>    0.6988    1.0000 </r>
       <r>    1.1194    1.0000 </r>
       <r>   10.2273    0.0000 </r>
       <r>   10.7252    0.0000 </r>
       <r>   11.0146    0.0000 </r>
       <r>   11.2001    0.0000 </r>
       <r>   11.5389    0.0000 </r>
      </set>
      <set comment="kpoint 14">
       <r>  -17.5752    1.0000 </r>
       <r>  -17.1860    1.0000 </r>
       <r>  -16.6523    1.0000 </r>
       <r>  -16.0617    1.0000 </r>
       <r>  -15.9936    1.0000 </r>
       <r>  -15.9918    1.0000 </r>
       <r>   -6.8566    1.0000 </r>
       <r>   -5.8701    1.0000 </r>
       <r>   -5.1562    1.0000 </r>
       <r>   -3.8978    1.0000 </r>
       <r>   -3.7950    1.0000 </r>
       <r>   -3.6155    1.0000 </r>
       <r>   -1.9739    1.0000 </r>
       <r>   -1.7469    1.0000 </r>
       <r>   -1.2647    1.0000 </r>
       <r>   -0.9003    1.0000 </r>
       <r>   -0.6224    1.0000 </r>
       <r>   -0.4222    1.0000 </r>
       <r>    0.1493    1.0000 </r>
       <r>    0.2557    1.0000 </r>
       <r>    0.3284    1.0000 </r>
       <r>    0.5712    1.0000 </r>
       <r>    0.7164    1.0000 </r>
       <r>    0.9241    1.0000 </r>
       <r>   10.1771    0.0000 </r>
       <r>   10.6510    0.0000 </r>
       <r>   10.9632    0.0000 </r>
       <r>   11.3049    0.0000 </r>
       <r>   11.7228    0.0000 </r>
      </set>
     </set>
    </set>
   </array>
  </eigenvalues>
  <separator name="orbital magnetization" >
   <v name="MAGDIPOLOUT">      0.00000000      0.00000000      0.00000000</v>
  </separator>
  <dos>
   <i name="efermi">      1.78392686 </i>
   <total>
    <array>
     <dimension dim="1">gridpoints</dimension>
     <dimension dim="2">spin</dimension>
     <field>energy</field>
     <field>total</field>
     <field>integrated</field>
     <set>
      <set comment="spin 1">
       <r>   -19.6804     0.0000     0.0000 </r>
       <r>   -19.5698     0.0000     0.0000 </r>
       <r>   -19.4592     0.0000     0.0000 </r>
       <r>   -19.3486     0.0000     0.0000 </r>
       <r>   -19.2380     0.0000     0.0000 </r>
       <r>   -19.1273     0.0000     0.0000 </r>
       <r>   -19.0167     0.0000     0.0000 </r>
       <r>   -18.9061     0.0000     0.0000 </r>
       <r>   -18.7955     0.0000     0.0000 </r>
       <r>   -18.6848     0.0000     0.0000 </r>
       <r>   -18.5742     0.0000     0.0000 </r>
       <r>   -18.4636     0.0000     0.0000 </r>
       <r>   -18.3530     0.0015     0.0002 </r>
       <r>   -18.2423     0.0455     0.0052 </r>
       <r>   -18.1317     0.2561     0.0335 </r>
       <r>   -18.0211     0.9592     0.1396 </r>
       <r>   -17.9105     2.1805     0.3808 </r>
       <r>   -17.7999     2.2491     0.6297 </r>
       <r>   -17.6892     3.1555     0.9787 </r>
       <r>   -17.5786     6.7081     1.7208 </r>
       <r>   -17.4680     3.7429     2.1348 </r>
       <r>   -17.3574     0.7679     2.2198 </r>
       <r>   -17.2467     1.6663     2.4041 </r>
       <r>   -17.1361     7.3326     3.2153 </r>
       <r>   -17.0255     4.7036     3.7356 </r>
       <r>   -16.9149     0.5611     3.7977 </r>
       <r>   -16.8042     0.9815     3.9063 </r>
       <r>   -16.6936     2.7449     4.2099 </r>
       <r>   -16.5830     6.4593     4.9245 </r>
       <r>   -16.4724     3.7494     5.3392 </r>
       <r>   -16.3617     1.9944     5.5599 </r>
       <r>   -16.2511     2.2041     5.8037 </r>
       <r>   -16.1405     3.0131     6.1370 </r>
       <r>   -16.0299    16.0921     7.9172 </r>
       <r>   -15.9193    27.1282    10.9182 </r>
       <r>   -15.8086     9.2422    11.9406 </r>
       <r>   -15.6980     0.5330    11.9995 </r>
       <r>   -15.5874     0.0042    12.0000 </r>
       <r>   -15.4768     0.0000    12.0000 </r>
       <r>   -15.3661     0.0000    12.0000 </r>
       <r>   -15.2555     0.0000    12.0000 </r>
       <r>   -15.1449     0.0000    12.0000 </r>
       <r>   -15.0343     0.0000    12.0000 </r>
       <r>   -14.9236     0.0000    12.0000 </r>
       <r>   -14.8130     0.0000    12.0000 </r>
       <r>   -14.7024     0.0000    12.0000 </r>
       <r>   -14.5918     0.0000    12.0000 </r>
       <r>   -14.4812     0.0000    12.0000 </r>
       <r>   -14.3705     0.0000    12.0000 </r>
       <r>   -14.2599     0.0000    12.0000 </r>
       <r>   -14.1493     0.0000    12.0000 </r>
       <r>   -14.0387     0.0000    12.0000 </r>
       <r>   -13.9280     0.0000    12.0000 </r>
       <r>   -13.8174     0.0000    12.0000 </r>
       <r>   -13.7068     0.0000    12.0000 </r>
       <r>   -13.5962     0.0000    12.0000 </r>
       <r>   -13.4855     0.0000    12.0000 </r>
       <r>   -13.3749     0.0000    12.0000 </r>
       <r>   -13.2643     0.0000    12.0000 </r>
       <r>   -13.1537     0.0000    12.0000 </r>
       <r>   -13.0431     0.0000    12.0000 </r>
       <r>   -12.9324     0.0000    12.0000 </r>
       <r>   -12.8218     0.0000    12.0000 </r>
       <r>   -12.7112     0.0000    12.0000 </r>
       <r>   -12.6006     0.0000    12.0000 </r>
       <r>   -12.4899     0.0000    12.0000 </r>
       <r>   -12.3793     0.0000    12.0000 </r>
       <r>   -12.2687     0.0000    12.0000 </r>
       <r>   -12.1581     0.0000    12.0000 </r>
       <r>   -12.0474     0.0000    12.0000 </r>
       <r>   -11.9368     0.0000    12.0000 </r>
       <r>   -11.8262     0.0000    12.0000 </r>
       <r>   -11.7156     0.0000    12.0000 </r>
       <r>   -11.6049     0.0000    12.0000 </r>
       <r>   -11.4943     0.0000    12.0000 </r>
       <r>   -11.3837     0.0000    12.0000 </r>
       <r>   -11.2731     0.0000    12.0000 </r>
       <r>   -11.1625     0.0000    12.0000 </r>
       <r>   -11.0518     0.0000    12.0000 </r>
       <r>   -10.9412     0.0000    12.0000 </r>
       <r>   -10.8306     0.0000    12.0000 </r>
       <r>   -10.7200     0.0000    12.0000 </r>
       <r>   -10.6093     0.0000    12.0000 </r>
       <r>   -10.4987     0.0000    12.0000 </r>
       <r>   -10.3881     0.0000    12.0000 </r>
       <r>   -10.2775     0.0000    12.0000 </r>
       <r>   -10.1668     0.0000    12.0000 </r>
       <r>   -10.0562     0.0000    12.0000 </r>
       <r>    -9.9456     0.0000    12.0000 </r>
       <r>    -9.8350     0.0000    12.0000 </r>
       <r>    -9.7244     0.0000    12.0000 </r>
       <r>    -9.6137     0.0000    12.0000 </r>
       <r>    -9.5031     0.0000    12.0000 </r>
       <r>    -9.3925     0.0000    12.0000 </r>
       <r>    -9.2819     0.0000    12.0000 </r>
       <r>    -9.1712     0.0000    12.0000 </r>
       <r>    -9.0606     0.0000    12.0000 </r>
       <r>    -8.9500     0.0000    12.0000 </r>
       <r>    -8.8394     0.0000    12.0000 </r>
       <r>    -8.7287     0.0000    12.0000 </r>
       <r>    -8.6181     0.0000    12.0000 </r>
       <r>    -8.5075     0.0000    12.0000 </r>
       <r>    -8.3969     0.0000    12.0000 </r>
       <r>    -8.2862     0.0000    12.0000 </r>
       <r>    -8.1756     0.0001    12.0000 </r>
       <r>    -8.0650     0.0117    12.0013 </r>
       <r>    -7.9544     0.1108    12.0136 </r>
       <r>    -7.8438     0.1389    12.0289 </r>
       <r>    -7.7331     0.0937    12.0393 </r>
       <r>    -7.6225     0.4162    12.0853 </r>
       <r>    -7.5119     0.9741    12.1931 </r>
       <r>    -7.4013     1.2311    12.3293 </r>
       <r>    -7.2906     1.9608    12.5462 </r>
       <r>    -7.1800     1.0303    12.6602 </r>
       <r>    -7.0694     1.3887    12.8138 </r>
       <r>    -6.9588     4.6183    13.3247 </r>
       <r>    -6.8481     4.7526    13.8504 </r>
       <r>    -6.7375     1.5179    14.0183 </r>
       <r>    -6.6269     0.1968    14.0401 </r>
       <r>    -6.5163     0.6999    14.1175 </r>
       <r>    -6.4057     0.7937    14.2053 </r>
       <r>    -6.2950     0.1193    14.2185 </r>
       <r>    -6.1844     0.0258    14.2214 </r>
       <r>    -6.0738     0.5243    14.2794 </r>
       <r>    -5.9632     3.4156    14.6572 </r>
       <r>    -5.8525     6.9590    15.4271 </r>
       <r>    -5.7419     2.9953    15.7584 </r>
       <r>    -5.6313     0.2047    15.7811 </r>
       <r>    -5.5207     0.0175    15.7830 </r>
       <r>    -5.4100     0.3491    15.8216 </r>
       <r>    -5.2994     0.9955    15.9317 </r>
       <r>    -5.1888     0.9251    16.0341 </r>
       <r>    -5.0782     2.1884    16.2762 </r>
       <r>    -4.9676     3.8971    16.7073 </r>
       <r>    -4.8569     2.9784    17.0368 </r>
       <r>    -4.7463     1.8802    17.2448 </r>
       <r>    -4.6357     1.7973    17.4436 </r>
       <r>    -4.5251     2.0000    17.6648 </r>
       <r>    -4.4144     0.6231    17.7338 </r>
       <r>    -4.3038     0.7455    17.8162 </r>
       <r>    -4.1932     3.0722    18.1561 </r>
       <r>    -4.0826     8.8468    19.1348 </r>
       <r>    -3.9719     9.6955    20.2073 </r>
       <r>    -3.8613     6.6587    20.9439 </r>
       <r>    -3.7507     6.7711    21.6930 </r>
       <r>    -3.6401     5.6651    22.3196 </r>
       <r>    -3.5294     5.6946    22.9496 </r>
       <r>    -3.4188     5.0970    23.5134 </r>
       <r>    -3.3082     2.6734    23.8092 </r>
       <r>    -3.1976     1.4580    23.9705 </r>
       <r>    -3.0870     0.2608    23.9993 </r>
       <r>    -2.9763     0.0060    24.0000 </r>
       <r>    -2.8657     0.0000    24.0000 </r>
       <r>    -2.7551     0.0000    24.0000 </r>
       <r>    -2.6445     0.0000    24.0000 </r>
       <r>    -2.5338     0.0000    24.0000 </r>
       <r>    -2.4232     0.0000    24.0000 </r>
       <r>    -2.3126     0.0000    24.0000 </r>
       <r>    -2.2020     0.0015    24.0002 </r>
       <r>    -2.0913     0.1599    24.0178 </r>
       <r>    -1.9807     2.6035    24.3059 </r>
       <r>    -1.8701     7.9393    25.1841 </r>
       <r>    -1.7595     8.1376    26.0843 </r>
       <r>    -1.6489     6.8271    26.8396 </r>
       <r>    -1.5382     5.3527    27.4317 </r>
       <r>    -1.4276     6.3470    28.1338 </r>
       <r>    -1.3170     8.5022    29.0744 </r>
       <r>    -1.2064     5.9609    29.7338 </r>
       <r>    -1.0957     3.8943    30.1646 </r>
       <r>    -0.9851     4.8313    30.6990 </r>
       <r>    -0.8745     8.3851    31.6266 </r>
       <r>    -0.7639     6.9494    32.3954 </r>
       <r>    -0.6532     7.3696    33.2107 </r>
       <r>    -0.5426     6.3367    33.9116 </r>
       <r>    -0.4320     6.2542    34.6035 </r>
       <r>    -0.3214     5.9554    35.2623 </r>
       <r>    -0.2107     8.0312    36.1507 </r>
       <r>    -0.1001     9.8463    37.2400 </r>
       <r>     0.0105     8.1730    38.1441 </r>
       <r>     0.1211     8.9358    39.1326 </r>
       <r>     0.2317     9.4874    40.1821 </r>
       <r>     0.3424    10.6944    41.3652 </r>
       <r>     0.4530     8.7670    42.3350 </r>
       <r>     0.5636     5.7952    42.9761 </r>
       <r>     0.6742     6.2865    43.6715 </r>
       <r>     0.7849     5.2738    44.2549 </r>
       <r>     0.8955     6.6471    44.9902 </r>
       <r>     1.0061     6.7063    45.7321 </r>
       <r>     1.1167     7.8153    46.5967 </r>
       <r>     1.2274     8.3170    47.5167 </r>
       <r>     1.3380     3.8015    47.9373 </r>
       <r>     1.4486     0.5533    47.9985 </r>
       <r>     1.5592     0.0137    48.0000 </r>
       <r>     1.6698     0.0000    48.0000 </r>
       <r>     1.7805     0.0000    48.0000 </r>
       <r>     1.8911     0.0000    48.0000 </r>
       <r>     2.0017     0.0000    48.0000 </r>
       <r>     2.1123     0.0000    48.0000 </r>
       <r>     2.2230     0.0000    48.0000 </r>
       <r>     2.3336     0.0000    48.0000 </r>
       <r>     2.4442     0.0000    48.0000 </r>
       <r>     2.5548     0.0000    48.0000 </r>
       <r>     2.6655     0.0000    48.0000 </r>
       <r>     2.7761     0.0000    48.0000 </r>
       <r>     2.8867     0.0000    48.0000 </r>
       <r>     2.9973     0.0000    48.0000 </r>
       <r>     3.1079     0.0000    48.0000 </r>
       <r>     3.2186     0.0000    48.0000 </r>
       <r>     3.3292     0.0000    48.0000 </r>
       <r>     3.4398     0.0000    48.0000 </r>
       <r>     3.5504     0.0000    48.0000 </r>
       <r>     3.6611     0.0000    48.0000 </r>
       <r>     3.7717     0.0000    48.0000 </r>
       <r>     3.8823     0.0000    48.0000 </r>
       <r>     3.9929     0.0000    48.0000 </r>
       <r>     4.1036     0.0000    48.0000 </r>
       <r>     4.2142     0.0000    48.0000 </r>
       <r>     4.3248     0.0000    48.0000 </r>
       <r>     4.4354     0.0000    48.0000 </r>
       <r>     4.5461     0.0000    48.0000 </r>
       <r>     4.6567     0.0000    48.0000 </r>
       <r>     4.7673     0.0000    48.0000 </r>
       <r>     4.8779     0.0000    48.0000 </r>
       <r>     4.9885     0.0000    48.0000 </r>
       <r>     5.0992     0.0000    48.0000 </r>
       <r>     5.2098     0.0000    48.0000 </r>
       <r>     5.3204     0.0000    48.0000 </r>
       <r>     5.4310     0.0000    48.0000 </r>
       <r>     5.5417     0.0000    48.0000 </r>
       <r>     5.6523     0.0000    48.0000 </r>
       <r>     5.7629     0.0000    48.0000 </r>
       <r>     5.8735     0.0000    48.0000 </r>
       <r>     5.9842     0.0000    48.0000 </r>
       <r>     6.0948     0.0000    48.0000 </r>
       <r>     6.2054     0.0000    48.0000 </r>
       <r>     6.3160     0.0000    48.0000 </r>
       <r>     6.4266     0.0000    48.0000 </r>
       <r>     6.5373     0.0000    48.0000 </r>
       <r>     6.6479     0.0000    48.0000 </r>
       <r>     6.7585     0.0000    48.0000 </r>
       <r>     6.8691     0.0000    48.0000 </r>
       <r>     6.9798     0.0000    48.0000 </r>
       <r>     7.0904     0.0001    48.0000 </r>
       <r>     7.2010     0.0116    48.0013 </r>
       <r>     7.3116     0.1107    48.0135 </r>
       <r>     7.4223     0.1371    48.0287 </r>
       <r>     7.5329     0.0225    48.0312 </r>
       <r>     7.6435     0.0004    48.0313 </r>
       <r>     7.7541     0.0029    48.0316 </r>
       <r>     7.8648     0.0859    48.0411 </r>
       <r>     7.9754     0.3135    48.0758 </r>
       <r>     8.0860     0.1850    48.0962 </r>
       <r>     8.1966     0.4919    48.1506 </r>
       <r>     8.3072     0.9317    48.2537 </r>
       <r>     8.4179     0.2417    48.2804 </r>
       <r>     8.5285     0.0551    48.2865 </r>
       <r>     8.6391     0.7954    48.3745 </r>
       <r>     8.7497     1.8610    48.5804 </r>
       <r>     8.8604     0.6538    48.6527 </r>
       <r>     8.9710     0.0317    48.6562 </r>
       <r>     9.0816     0.0006    48.6563 </r>
       <r>     9.1922     0.0279    48.6594 </r>
       <r>     9.3029     0.2482    48.6868 </r>
       <r>     9.4135     0.5683    48.7497 </r>
       <r>     9.5241     1.0716    48.8683 </r>
       <r>     9.6347     1.4364    49.0271 </r>
       <r>     9.7453     3.0521    49.3648 </r>
       <r>     9.8560     2.9884    49.6954 </r>
       <r>     9.9666     1.7694    49.8911 </r>
       <r>    10.0772     0.5514    49.9521 </r>
       <r>    10.1878     1.0673    50.0702 </r>
       <r>    10.2985     1.3753    50.2223 </r>
       <r>    10.4091     2.0366    50.4476 </r>
       <r>    10.5197     3.1181    50.7925 </r>
       <r>    10.6303     5.0140    51.3472 </r>
       <r>    10.7410     9.0476    52.3481 </r>
       <r>    10.8516     6.2353    53.0378 </r>
       <r>    10.9622     6.4894    53.7557 </r>
       <r>    11.0728     7.4032    54.5747 </r>
       <r>    11.1834     3.0425    54.9113 </r>
       <r>    11.2941     3.6420    55.3142 </r>
       <r>    11.4047     5.6424    55.9383 </r>
       <r>    11.5153     6.3227    56.6378 </r>
       <r>    11.6259     5.3778    57.2327 </r>
       <r>    11.7366     3.3714    57.6056 </r>
       <r>    11.8472     2.1850    57.8473 </r>
       <r>    11.9578     0.7489    57.9302 </r>
       <r>    12.0684     0.4955    57.9850 </r>
       <r>    12.1791     0.1311    57.9995 </r>
       <r>    12.2897     0.0044    58.0000 </r>
       <r>    12.4003     0.0000    58.0000 </r>
       <r>    12.5109     0.0000    58.0000 </r>
       <r>    12.6216     0.0000    58.0000 </r>
       <r>    12.7322     0.0000    58.0000 </r>
       <r>    12.8428     0.0000    58.0000 </r>
       <r>    12.9534     0.0000    58.0000 </r>
       <r>    13.0640     0.0000    58.0000 </r>
       <r>    13.1747     0.0000    58.0000 </r>
       <r>    13.2853     0.0000    58.0000 </r>
       <r>    13.3959     0.0000    58.0000 </r>
       <r>    13.5065     0.0000    58.0000 </r>
      </set>
     </set>
    </array>
   </total>
  </dos>
 </calculation>
 <structure name="finalpos" >
  <crystal>
   <varray name="basis" >
    <v>       4.87342988       0.00000000       0.00000000 </v>
    <v>      -2.43671494       4.22051408       0.00000000 </v>
    <v>       0.00000000       0.00000000       5.37418982 </v>
   </varray>
   <i name="volume">    110.53837516 </i>
   <varray name="rec_basis" >
    <v>       0.20519429       0.11846898      -0.00000000 </v>
    <v>       0.00000000       0.23693796       0.00000000 </v>
    <v>       0.00000000      -0.00000000       0.18607456 </v>
   </varray>
  </crystal>
  <varray name="positions" >
   <v>       0.46467067       0.99997543       0.66660030 </v>
   <v>       0.00002457       0.46469523       0.33326696 </v>
   <v>       0.53530477       0.53532933       0.99993363 </v>
   <v>       0.13551097       0.72380904       0.55424703 </v>
   <v>       0.27619096       0.41170194       0.22091369 </v>
   <v>       0.58829806       0.86448903       0.88758036 </v>
   <v>       0.41130878       0.27584401       0.77920281 </v>
   <v>       0.86453523       0.58869122       0.11253615 </v>
   <v>       0.72415599       0.13546477       0.44586948 </v>
  </varray>
 </structure>
</modeling>
