phonopy:
  version: "2.20.0"
  frequency_unit_conversion_factor: 15.633302
  symmetry_tolerance: 1.00000e-05
  configuration:
    fc_symmetry: ".true."
    eigenvectors: ".true."
    mesh_numbers: "1 1 1"
    dim: "1 1 1"
    read_force_constants: ".true."
    hdf5: ".true."

physical_unit:
  atomic_mass: "AMU"
  length: "angstrom"
  force_constants: "eV/angstrom^2"

space_group:
  type: "P3_221"
  number: 154
  Hall_symbol: "P 32 2\""

supercell_matrix:
- [   1,   0,   0 ]
- [   0,   1,   0 ]
- [   0,   0,   1 ]

primitive_cell:
  lattice:
  - [     4.873429876587434,     0.000000000000000,     0.000000000000000 ] # a
  - [    -2.436714938293717,     4.220514076686779,     0.000000000000000 ] # b
  - [     0.000000000000000,     0.000000000000000,     5.374189819951033 ] # c
  points:
  - symbol: Si # 1
    coordinates: [  0.464682951386930,  0.000000000000000,  0.666666666666667 ]
    mass: 28.085500
  - symbol: Si # 2
    coordinates: [  0.000000000000000,  0.464682951386930,  0.333333333333333 ]
    mass: 28.085500
  - symbol: Si # 3
    coordinates: [  0.535317048613070,  0.535317048613070,  0.000000000000000 ]
    mass: 28.085500
  - symbol: O  # 4
    coordinates: [  0.135487870633840,  0.723982511991845,  0.554188772932831 ]
    mass: 15.999400
  - symbol: O  # 5
    coordinates: [  0.276017488008155,  0.411505358641995,  0.220855439599497 ]
    mass: 15.999400
  - symbol: O  # 6
    coordinates: [  0.588494641358005,  0.864512129366160,  0.887522106266164 ]
    mass: 15.999400
  - symbol: O  # 7
    coordinates: [  0.411505358641995,  0.276017488008155,  0.779144560400503 ]
    mass: 15.999400
  - symbol: O  # 8
    coordinates: [  0.864512129366160,  0.588494641358005,  0.112477893733836 ]
    mass: 15.999400
  - symbol: O  # 9
    coordinates: [  0.723982511991845,  0.135487870633840,  0.445811227067169 ]
    mass: 15.999400
  reciprocal_lattice: # without 2pi
  - [     0.205194293408042,     0.118468980535308,     0.000000000000000 ] # a*
  - [     0.000000000000000,     0.236937961070616,     0.000000000000000 ] # b*
  - [     0.000000000000000,     0.000000000000000,     0.186074558864226 ] # c*

unit_cell:
  lattice:
  - [     4.873429876587434,     0.000000000000000,     0.000000000000000 ] # a
  - [    -2.436714938293717,     4.220514076686779,     0.000000000000000 ] # b
  - [     0.000000000000000,     0.000000000000000,     5.374189819951033 ] # c
  points:
  - symbol: Si # 1
    coordinates: [  0.464682951386930,  0.000000000000000,  0.666666666666667 ]
    mass: 28.085500
    reduced_to: 1
  - symbol: Si # 2
    coordinates: [  0.000000000000000,  0.464682951386930,  0.333333333333333 ]
    mass: 28.085500
    reduced_to: 2
  - symbol: Si # 3
    coordinates: [  0.535317048613070,  0.535317048613070,  0.000000000000000 ]
    mass: 28.085500
    reduced_to: 3
  - symbol: O  # 4
    coordinates: [  0.135487870633840,  0.723982511991845,  0.554188772932831 ]
    mass: 15.999400
    reduced_to: 4
  - symbol: O  # 5
    coordinates: [  0.276017488008155,  0.411505358641995,  0.220855439599497 ]
    mass: 15.999400
    reduced_to: 5
  - symbol: O  # 6
    coordinates: [  0.588494641358005,  0.864512129366160,  0.887522106266164 ]
    mass: 15.999400
    reduced_to: 6
  - symbol: O  # 7
    coordinates: [  0.411505358641995,  0.276017488008155,  0.779144560400503 ]
    mass: 15.999400
    reduced_to: 7
  - symbol: O  # 8
    coordinates: [  0.864512129366160,  0.588494641358005,  0.112477893733836 ]
    mass: 15.999400
    reduced_to: 8
  - symbol: O  # 9
    coordinates: [  0.723982511991845,  0.135487870633840,  0.445811227067169 ]
    mass: 15.999400
    reduced_to: 9

supercell:
  lattice:
  - [     4.873429876587434,     0.000000000000000,     0.000000000000000 ] # a
  - [    -2.436714938293717,     4.220514076686779,     0.000000000000000 ] # b
  - [     0.000000000000000,     0.000000000000000,     5.374189819951033 ] # c
  points:
  - symbol: Si # 1
    coordinates: [  0.464682951386930,  0.000000000000000,  0.666666666666667 ]
    mass: 28.085500
    reduced_to: 1
  - symbol: Si # 2
    coordinates: [  0.000000000000000,  0.464682951386930,  0.333333333333333 ]
    mass: 28.085500
    reduced_to: 2
  - symbol: Si # 3
    coordinates: [  0.535317048613070,  0.535317048613070,  0.000000000000000 ]
    mass: 28.085500
    reduced_to: 3
  - symbol: O  # 4
    coordinates: [  0.135487870633840,  0.723982511991845,  0.554188772932831 ]
    mass: 15.999400
    reduced_to: 4
  - symbol: O  # 5
    coordinates: [  0.276017488008155,  0.411505358641995,  0.220855439599497 ]
    mass: 15.999400
    reduced_to: 5
  - symbol: O  # 6
    coordinates: [  0.588494641358005,  0.864512129366160,  0.887522106266164 ]
    mass: 15.999400
    reduced_to: 6
  - symbol: O  # 7
    coordinates: [  0.411505358641995,  0.276017488008155,  0.779144560400503 ]
    mass: 15.999400
    reduced_to: 7
  - symbol: O  # 8
    coordinates: [  0.864512129366160,  0.588494641358005,  0.112477893733836 ]
    mass: 15.999400
    reduced_to: 8
  - symbol: O  # 9
    coordinates: [  0.723982511991845,  0.135487870633840,  0.445811227067169 ]
    mass: 15.999400
    reduced_to: 9
