<?xml version="1.0" encoding="ISO-8859-1"?>
<modeling>
 <generator>
  <i name="program" type="string">vasp </i>
  <i name="version" type="string">6.4.1  </i>
  <i name="subversion" type="string">05Apr23 (build Sep  6 2023 20:49:31) complex                          parallel </i>
  <i name="platform" type="string">LinuxNV </i>
  <i name="date" type="string">2023 10 19 </i>
  <i name="time" type="string">14:08:02 </i>
 </generator>
 <incar>
  <i type="string" name="PREC">Accurate</i>
  <i type="string" name="ALGO">Fast</i>
  <i name="EDIFF">      0.00000001</i>
  <i name="ENCUT">    500.00000000</i>
  <i type="int" name="ISMEAR">     0</i>
  <i name="SIGMA">      0.10000000</i>
  <i type="logical" name="LEPSILON"> T  </i>
 </incar>
 <primitive_cell>
  <structure name="primitive_cell" >
   <crystal>
    <varray name="basis" >
     <v>       4.87342988       0.00000000       0.00000000 </v>
     <v>      -2.43671494       4.22051408       0.00000000 </v>
     <v>       0.00000000       0.00000000       5.37418982 </v>
    </varray>
    <i name="volume">    110.53837516 </i>
    <varray name="rec_basis" >
     <v>       0.20519429       0.11846898      -0.00000000 </v>
     <v>       0.00000000       0.23693796       0.00000000 </v>
     <v>       0.00000000      -0.00000000       0.18607456 </v>
    </varray>
   </crystal>
   <varray name="positions" >
    <v>       0.46460755       0.99984919       0.66670403 </v>
    <v>       0.99992460       0.46458094       0.33331465 </v>
    <v>       0.53529045       0.53521504       0.99998132 </v>
    <v>       0.13564747       0.72415776       0.55431263 </v>
    <v>       0.27599668       0.41148324       0.22085925 </v>
    <v>       0.58845688       0.86467043       0.88739444 </v>
    <v>       0.41152101       0.27619274       0.77926841 </v>
    <v>       0.86451083       0.58847253       0.11248171 </v>
    <v>       0.72417857       0.13564617       0.44568356 </v>
   </varray>
  </structure>
  <varray name="primitive_index" >
   <v type="int" >        1 </v>
   <v type="int" >        2 </v>
   <v type="int" >        3 </v>
   <v type="int" >        4 </v>
   <v type="int" >        5 </v>
   <v type="int" >        6 </v>
   <v type="int" >        7 </v>
   <v type="int" >        8 </v>
   <v type="int" >        9 </v>
  </varray>
 </primitive_cell>
 <kpoints>
  <generation param="Gamma">
   <v type="int" name="divisions">       4        4        4 </v>
   <v name="usershift">      0.00000000       0.00000000       0.00000000 </v>
   <v name="genvec1">      0.25000000       0.00000000       0.00000000 </v>
   <v name="genvec2">      0.00000000       0.25000000       0.00000000 </v>
   <v name="genvec3">      0.00000000       0.00000000       0.25000000 </v>
   <v name="shift">      0.00000000       0.00000000       0.00000000 </v>
  </generation>
  <varray name="kpointlist" >
   <v>       0.00000000       0.00000000       0.00000000 </v>
   <v>       0.25000000       0.00000000       0.00000000 </v>
   <v>       0.00000000       0.25000000       0.00000000 </v>
   <v>      -0.25000000       0.25000000       0.00000000 </v>
   <v>       0.50000000       0.00000000       0.00000000 </v>
   <v>       0.00000000       0.50000000       0.00000000 </v>
   <v>       0.50000000       0.50000000       0.00000000 </v>
   <v>       0.25000000       0.25000000       0.00000000 </v>
   <v>      -0.25000000       0.50000000       0.00000000 </v>
   <v>       0.50000000       0.25000000       0.00000000 </v>
   <v>       0.00000000       0.00000000       0.25000000 </v>
   <v>       0.25000000       0.00000000       0.25000000 </v>
   <v>       0.00000000       0.25000000       0.25000000 </v>
   <v>      -0.25000000       0.25000000       0.25000000 </v>
   <v>      -0.25000000       0.00000000       0.25000000 </v>
   <v>       0.00000000      -0.25000000       0.25000000 </v>
   <v>       0.25000000      -0.25000000       0.25000000 </v>
   <v>       0.50000000       0.00000000       0.25000000 </v>
   <v>       0.00000000       0.50000000       0.25000000 </v>
   <v>       0.50000000       0.50000000       0.25000000 </v>
   <v>       0.25000000       0.25000000       0.25000000 </v>
   <v>      -0.25000000       0.50000000       0.25000000 </v>
   <v>       0.50000000       0.25000000       0.25000000 </v>
   <v>      -0.25000000      -0.25000000       0.25000000 </v>
   <v>       0.25000000       0.50000000       0.25000000 </v>
   <v>       0.50000000      -0.25000000       0.25000000 </v>
   <v>       0.00000000       0.00000000       0.50000000 </v>
   <v>       0.25000000       0.00000000       0.50000000 </v>
   <v>       0.00000000       0.25000000       0.50000000 </v>
   <v>      -0.25000000       0.25000000       0.50000000 </v>
   <v>       0.50000000       0.00000000       0.50000000 </v>
   <v>       0.00000000       0.50000000       0.50000000 </v>
   <v>       0.50000000       0.50000000       0.50000000 </v>
   <v>       0.25000000       0.25000000       0.50000000 </v>
   <v>      -0.25000000       0.50000000       0.50000000 </v>
   <v>       0.50000000       0.25000000       0.50000000 </v>
  </varray>
  <varray name="weights" >
   <v>       0.01562500 </v>
   <v>       0.03125000 </v>
   <v>       0.03125000 </v>
   <v>       0.03125000 </v>
   <v>       0.01562500 </v>
   <v>       0.01562500 </v>
   <v>       0.01562500 </v>
   <v>       0.03125000 </v>
   <v>       0.03125000 </v>
   <v>       0.03125000 </v>
   <v>       0.03125000 </v>
   <v>       0.03125000 </v>
   <v>       0.03125000 </v>
   <v>       0.03125000 </v>
   <v>       0.03125000 </v>
   <v>       0.03125000 </v>
   <v>       0.03125000 </v>
   <v>       0.03125000 </v>
   <v>       0.03125000 </v>
   <v>       0.03125000 </v>
   <v>       0.03125000 </v>
   <v>       0.03125000 </v>
   <v>       0.03125000 </v>
   <v>       0.03125000 </v>
   <v>       0.03125000 </v>
   <v>       0.03125000 </v>
   <v>       0.01562500 </v>
   <v>       0.03125000 </v>
   <v>       0.03125000 </v>
   <v>       0.03125000 </v>
   <v>       0.01562500 </v>
   <v>       0.01562500 </v>
   <v>       0.01562500 </v>
   <v>       0.03125000 </v>
   <v>       0.03125000 </v>
   <v>       0.03125000 </v>
  </varray>
 </kpoints>
 <parameters>
  <separator name="general" >
   <i type="string" name="SYSTEM">unknown system</i>
   <i type="logical" name="LCOMPAT"> F  </i>
  </separator>
  <separator name="electronic" >
   <i type="string" name="PREC">accura</i>
   <i name="ENMAX">    500.00000000</i>
   <i name="ENAUG">    605.39200000</i>
   <i name="EDIFF">      0.00000001</i>
   <i type="int" name="IALGO">    68</i>
   <i type="int" name="IWAVPR">    10</i>
   <i type="int" name="NBANDS">    29</i>
   <i type="int" name="NBANDSLOW">    -1</i>
   <i type="int" name="NBANDSHIGH">    -1</i>
   <i name="NELECT">     48.00000000</i>
   <i type="int" name="TURBO">     0</i>
   <i type="int" name="IRESTART">     0</i>
   <i type="int" name="NREBOOT">     0</i>
   <i type="int" name="NMIN">     0</i>
   <i name="EREF">      0.00000000</i>
   <separator name="electronic smearing" >
    <i type="int" name="ISMEAR">     0</i>
    <i name="SIGMA">      0.10000000</i>
    <i name="KSPACING">      0.50000000</i>
    <i type="logical" name="KGAMMA"> T  </i>
    <i type="logical" name="KBLOWUP"> T  </i>
   </separator>
   <separator name="electronic projectors" >
    <i type="logical" name="LREAL"> F  </i>
    <v name="ROPT">      0.00000000      0.00000000</v>
    <i type="int" name="LMAXPAW">  -100</i>
    <i type="int" name="LMAXMIX">     2</i>
    <i type="logical" name="NLSPLINE"> F  </i>
   </separator>
   <separator name="electronic startup" >
    <i type="int" name="ISTART">     0</i>
    <i type="int" name="ICHARG">     2</i>
    <i type="int" name="INIWAV">     1</i>
   </separator>
   <separator name="electronic spin" >
    <i type="int" name="ISPIN">     1</i>
    <i type="logical" name="LNONCOLLINEAR"> F  </i>
    <v name="MAGMOM">      1.00000000      1.00000000      1.00000000      1.00000000      1.00000000      1.00000000      1.00000000      1.00000000      1.00000000</v>
    <i name="NUPDOWN">     -1.00000000</i>
    <i type="logical" name="LSORBIT"> F  </i>
    <v name="SAXIS">      0.00000000      0.00000000      1.00000000</v>
    <i type="logical" name="LSPIRAL"> F  </i>
    <v name="QSPIRAL">      0.00000000      0.00000000      0.00000000</v>
    <i type="logical" name="LZEROZ"> F  </i>
   </separator>
   <separator name="electronic exchange-correlation" >
    <i type="logical" name="LASPH"> F  </i>
    <i type="logical" name="LMETAGGA"> F  </i>
   </separator>
   <separator name="electronic convergence" >
    <i type="int" name="NELM">    60</i>
    <i type="int" name="NELMDL">    -5</i>
    <i type="int" name="NELMIN">     2</i>
    <i name="ENINI">    500.00000000</i>
    <separator name="electronic convergence detail" >
     <i type="logical" name="LDIAG"> T  </i>
     <i type="logical" name="LSUBROT"> F  </i>
     <i name="WEIMIN">      0.00000000</i>
     <i name="EBREAK">      0.00000000</i>
     <i name="DEPER">      0.30000000</i>
     <i type="int" name="NRMM">     4</i>
     <i name="TIME">      0.40000000</i>
    </separator>
   </separator>
   <separator name="electronic mixer" >
    <i name="AMIX">      0.40000000</i>
    <i name="BMIX">      1.00000000</i>
    <i name="AMIN">      0.10000000</i>
    <i name="AMIX_MAG">      1.60000000</i>
    <i name="BMIX_MAG">      1.00000000</i>
    <separator name="electronic mixer details" >
     <i type="int" name="IMIX">     4</i>
     <i type="logical" name="MIXFIRST"> F  </i>
     <i type="int" name="MAXMIX">   -45</i>
     <i name="WC">    100.00000000</i>
     <i type="int" name="INIMIX">     1</i>
     <i type="int" name="MIXPRE">     1</i>
     <i type="int" name="MREMOVE">     5</i>
    </separator>
   </separator>
   <separator name="electronic dipolcorrection" >
    <i type="logical" name="LDIPOL"> F  </i>
    <i type="logical" name="LMONO"> F  </i>
    <i type="int" name="IDIPOL">     0</i>
    <i name="EPSILON">      1.00000000</i>
    <v name="DIPOL">   -100.00000000   -100.00000000   -100.00000000</v>
    <i name="EFIELD">      0.00000000</i>
   </separator>
  </separator>
  <separator name="grids" >
   <i type="int" name="NGX">    36</i>
   <i type="int" name="NGY">    36</i>
   <i type="int" name="NGZ">    40</i>
   <i type="int" name="NGXF">    72</i>
   <i type="int" name="NGYF">    72</i>
   <i type="int" name="NGZF">    80</i>
   <i type="logical" name="ADDGRID"> F  </i>
  </separator>
  <separator name="ionic" >
   <i type="int" name="NSW">     0</i>
   <i type="int" name="IBRION">    -1</i>
   <i type="int" name="MDALGO">     0</i>
   <i type="int" name="ISIF">     2</i>
   <i name="PSTRESS">      0.00000000</i>
   <i name="EDIFFG">      0.00000010</i>
   <i type="int" name="NFREE">     0</i>
   <i name="POTIM">      0.50000000</i>
   <i name="SMASS">     -3.00000000</i>
   <i name="SCALEE">      1.00000000</i>
  </separator>
  <separator name="ionic md" >
   <i name="TEBEG">      0.00010000</i>
   <i name="TEEND">      0.00010000</i>
   <i type="int" name="NBLOCK">     1</i>
   <i type="int" name="KBLOCK">     1</i>
   <i type="int" name="NPACO">   256</i>
   <i name="APACO">     10.00000000</i>
  </separator>
  <separator name="symmetry" >
   <i type="int" name="ISYM">     2</i>
   <i name="SYMPREC">      0.00001000</i>
  </separator>
  <separator name="dos" >
   <i type="int" name="LORBIT">     0</i>
   <v name="RWIGS">     -1.00000000     -1.00000000</v>
   <i type="int" name="NEDOS">   301</i>
   <i name="EMIN">     10.00000000</i>
   <i name="EMAX">    -10.00000000</i>
   <i name="EFERMI">      0.00000000</i>
  </separator>
  <separator name="writing" >
   <i type="int" name="NWRITE">     2</i>
   <i type="logical" name="LWAVE"> T  </i>
   <i type="logical" name="LDOWNSAMPLE"> F  </i>
   <i type="logical" name="LCHARG"> T  </i>
   <i type="logical" name="LPARD"> F  </i>
   <i type="logical" name="LVTOT"> F  </i>
   <i type="logical" name="LVHAR"> F  </i>
   <i type="logical" name="LELF"> F  </i>
   <i type="logical" name="LOPTICS"> F  </i>
   <v name="STM">      0.00000000      0.00000000      0.00000000      0.00000000      0.00000000      0.00000000      0.00000000</v>
  </separator>
  <separator name="performance" >
   <i type="int" name="NPAR">     1</i>
   <i type="int" name="NSIM">     4</i>
   <i type="int" name="NBLK">    -1</i>
   <i type="logical" name="LPLANE"> T  </i>
   <i type="logical" name="LSCALAPACK"> T  </i>
   <i type="logical" name="LSCAAWARE"> F  </i>
   <i type="logical" name="LSCALU"> F  </i>
   <i type="logical" name="LASYNC"> F  </i>
   <i type="logical" name="LORBITALREAL"> F  </i>
  </separator>
  <separator name="miscellaneous" >
   <i type="int" name="IDIOT">     3</i>
   <i type="int" name="PHON_NSTRUCT">    -1</i>
   <i type="logical" name="LMUSIC"> F  </i>
   <v name="POMASS">     28.08500000     16.00000000</v>
   <v name="DARWINR">      0.00000000      0.00000000</v>
   <v name="DARWINV">      1.00000000      1.00000000</v>
   <i type="logical" name="LCORR"> T  </i>
  </separator>
  <i type="logical" name="GGA_COMPAT"> T  </i>
  <i type="logical" name="LBERRY"> F  </i>
  <i type="int" name="ICORELEVEL">     0</i>
  <i type="logical" name="LDAU"> F  </i>
  <i type="int" name="I_CONSTRAINED_M">     0</i>
  <separator name="electronic exchange-correlation" >
   <i type="string" name="GGA">--</i>
   <i type="int" name="VOSKOWN">     0</i>
   <i type="logical" name="LHFCALC"> F  </i>
   <i type="string" name="PRECFOCK"></i>
   <i type="logical" name="LSYMGRAD"> F  </i>
   <i type="logical" name="LHFONE"> F  </i>
   <i type="logical" name="LRHFCALC"> F  </i>
   <i type="logical" name="LTHOMAS"> F  </i>
   <i type="logical" name="LMODELHF"> F  </i>
   <i type="logical" name="LFOCKACE"> F  </i>
   <i name="ENCUT4O">     -1.00000000</i>
   <i type="int" name="EXXOEP">     0</i>
   <i type="int" name="FOURORBIT">     0</i>
   <i name="AEXX">      0.00000000</i>
   <i name="HFALPHA">      0.00000000</i>
   <i name="MCALPHA">      0.00000000</i>
   <i name="ALDAX">      1.00000000</i>
   <i name="AGGAX">      1.00000000</i>
   <i name="ALDAC">      1.00000000</i>
   <i name="AGGAC">      1.00000000</i>
   <i type="int" name="NKREDX">     1</i>
   <i type="int" name="NKREDY">     1</i>
   <i type="int" name="NKREDZ">     1</i>
   <i type="logical" name="SHIFTRED"> F  </i>
   <i type="logical" name="ODDONLY"> F  </i>
   <i type="logical" name="EVENONLY"> F  </i>
   <i type="int" name="LMAXFOCK">     0</i>
   <i type="int" name="NMAXFOCKAE">     0</i>
   <i type="logical" name="LFOCKAEDFT"> F  </i>
   <i name="HFSCREEN">      0.00000000</i>
   <i name="HFSCREENC">      0.00000000</i>
   <i type="int" name="NBANDSGWLOW">     0</i>
  </separator>
  <separator name="vdW DFT" >
   <i type="logical" name="LUSE_VDW"> F  </i>
   <i type="int" name="IVDW_NL">     1</i>
   <i type="logical" name="LSPIN_VDW"> F  </i>
   <i name="Zab_VDW">     -0.84910000</i>
   <i name="PARAM1">      0.12340000</i>
   <i name="PARAM2">      1.00000000</i>
   <i name="PARAM3">      0.00000000</i>
  </separator>
  <separator name="model GW" >
   <i type="int" name="MODEL_GW">     0</i>
   <i name="MODEL_EPS0">      7.36922501</i>
   <i name="MODEL_ALPHA">      1.00000000</i>
  </separator>
  <separator name="linear response parameters" >
   <i type="logical" name="LEPSILON"> T  </i>
   <i type="logical" name="LRPA"> F  </i>
   <i type="logical" name="LNABLA"> F  </i>
   <i type="logical" name="LVEL"> F  </i>
   <i name="CSHIFT">      0.10000000</i>
   <i name="OMEGAMAX">     -1.00000000</i>
   <i name="DEG_THRESHOLD">      0.00200000</i>
   <i name="RTIME">     -0.10000000</i>
   <i name="WPLASMAI">      0.00000000</i>
   <v name="DFIELD">      0.00000000      0.00000000      0.00000000</v>
   <v name="WPLASMA">      0.00000000      0.00000000      0.00000000      0.00000000      0.00000000      0.00000000      0.00000000      0.00000000      0.00000000</v>
  </separator>
  <separator name="orbital magnetization" >
   <i type="logical" name="NUCIND"> F  </i>
   <v name="MAGPOS">      0.00000000      0.00000000      0.00000000</v>
   <i type="logical" name="LNICSALL"> T  </i>
   <i type="logical" name="ORBITALMAG"> F  </i>
   <i type="logical" name="LMAGBLOCH"> F  </i>
   <i type="logical" name="LCHIMAG"> F  </i>
   <i type="logical" name="LGAUGE"> T  </i>
   <i type="int" name="MAGATOM">     0</i>
   <v name="MAGDIPOL">      0.00000000      0.00000000      0.00000000</v>
   <v name="AVECCONST">      0.00000000      0.00000000      0.00000000</v>
  </separator>
  <separator name="response functions" >
   <i type="logical" name="LALL_IN_ONE"> F  </i>
   <i type="int" name="IALL_IN_ONE">    -1</i>
   <i type="int" name="NBANDS_WAVE">    -1</i>
   <i type="logical" name="LFINITE_TEMPERATURE"> F  </i>
   <i type="logical" name="LADDER"> F  </i>
   <i type="logical" name="LRPAFORCE"> F  </i>
   <i type="logical" name="LFXC"> F  </i>
   <i type="logical" name="LHARTREE"> T  </i>
   <i type="int" name="IBSE">     0</i>
   <v type="int" name="KPOINT">    -1     0     0     0</v>
   <i type="logical" name="LTCTC"> F  </i>
   <i type="logical" name="LTCTE"> F  </i>
   <i type="logical" name="LTETE"> F  </i>
   <i type="logical" name="LTRIPLET"> F  </i>
   <i type="logical" name="LFXCEPS"> F  </i>
   <i type="logical" name="LFXHEG"> F  </i>
   <i type="int" name="NATURALO">     2</i>
   <i type="logical" name="LHOLEGF"> F  </i>
   <i type="logical" name="L2ORDER"> F  </i>
   <i type="logical" name="LDMP1"> F  </i>
   <i type="logical" name="LMP2LT"> F  </i>
   <i type="logical" name="LSMP2LT"> F  </i>
   <i type="logical" name="LGWLF"> F  </i>
   <i name="ENCUTGW">     -1.60000002</i>
   <i name="ENCUTGWSOFT">     -1.60000002</i>
   <i name="ENCUTLF">     -1.00000000</i>
   <i type="logical" name="LESF_SPLINES"> F  </i>
   <i type="int" name="LMAXMP2">    -1</i>
   <i name="SCISSOR">      0.00000000</i>
   <i type="int" name="NOMEGA">     0</i>
   <i type="int" name="NOMEGAR">     0</i>
   <i type="int" name="NBANDSGW">    -1</i>
   <i type="int" name="NBANDSO">    -1</i>
   <i type="int" name="NBANDSV">    -1</i>
   <i type="int" name="NELMGW">     1</i>
   <i type="int" name="NELMHF">     1</i>
   <i type="int" name="DIM">     3</i>
   <i type="int" name="IESPILON">     4</i>
   <i type="int" name="ANTIRES">     0</i>
   <i name="OMEGAMAX">    -30.00000000</i>
   <i name="OMEGAMIN">    -30.00000000</i>
   <i name="OMEGATL">   -200.00000000</i>
   <i type="int" name="OMEGAGRID">     0</i>
   <i name="CSHIFT">     -0.10000000</i>
   <i type="logical" name="LSELFENERGY"> F  </i>
   <i type="logical" name="LSPECTRAL"> F  </i>
   <i type="logical" name="LSPECTRALGW"> F  </i>
   <i type="logical" name="LSINGLES"> F  </i>
   <i type="logical" name="LFERMIGW"> F  </i>
   <i type="logical" name="ODDONLYGW"> F  </i>
   <i type="logical" name="EVENONLYGW"> F  </i>
   <i type="int" name="NKREDLFX">     1</i>
   <i type="int" name="NKREDLFY">     1</i>
   <i type="int" name="NKREDLFZ">     1</i>
   <i type="int" name="MAXMEM">  2800</i>
   <i type="int" name="TELESCOPE">     0</i>
   <i type="int" name="NTAUPAR">    -1</i>
   <i type="int" name="NOMEGAPAR">    -1</i>
   <i name="DAMP_NEWTON">      0.80000001</i>
   <i name="LAMBDA">      1.00000000</i>
  </separator>
  <separator name="External order field" >
   <i name="OFIELD_KAPPA">      0.00000000</i>
   <v name="OFIELD_K">      0.00000000      0.00000000      0.00000000</v>
   <i name="OFIELD_Q6_NEAR">      0.00000000</i>
   <i name="OFIELD_Q6_FAR">      0.00000000</i>
   <i name="OFIELD_A">      0.00000000</i>
  </separator>
  <separator name="optional k-points parameters" >
   <i type="int" name="KPOINTS_OPT_MODE">     1</i>
   <i type="logical" name="LKPOINTS_OPT"> F  </i>
  </separator>
 </parameters>
 <atominfo>
  <atoms>       9 </atoms>
  <types>       2 </types>
  <array name="atoms" >
   <dimension dim="1">ion</dimension>
   <field type="string">element</field>
   <field type="int">atomtype</field>
   <set>
    <rc><c>Si</c><c>   1</c></rc>
    <rc><c>Si</c><c>   1</c></rc>
    <rc><c>Si</c><c>   1</c></rc>
    <rc><c>O </c><c>   2</c></rc>
    <rc><c>O </c><c>   2</c></rc>
    <rc><c>O </c><c>   2</c></rc>
    <rc><c>O </c><c>   2</c></rc>
    <rc><c>O </c><c>   2</c></rc>
    <rc><c>O </c><c>   2</c></rc>
   </set>
  </array>
  <array name="atomtypes" >
   <dimension dim="1">type</dimension>
   <field type="int">atomspertype</field>
   <field type="string">element</field>
   <field>mass</field>
   <field>valence</field>
   <field type="string">pseudopotential</field>
   <set>
    <rc><c>   3</c><c>Si</c><c>     28.08500000</c><c>      4.00000000</c><c>  PAW_PBE Si 05Jan2001                  </c></rc>
    <rc><c>   6</c><c>O </c><c>     16.00000000</c><c>      6.00000000</c><c>  PAW_PBE O 08Apr2002                   </c></rc>
   </set>
  </array>
 </atominfo>
 <structure name="initialpos" >
  <crystal>
   <varray name="basis" >
    <v>       4.87342988       0.00000000       0.00000000 </v>
    <v>      -2.43671494       4.22051408       0.00000000 </v>
    <v>       0.00000000       0.00000000       5.37418982 </v>
   </varray>
   <i name="volume">    110.53837516 </i>
   <varray name="rec_basis" >
    <v>       0.20519429       0.11846898      -0.00000000 </v>
    <v>       0.00000000       0.23693796       0.00000000 </v>
    <v>       0.00000000      -0.00000000       0.18607456 </v>
   </varray>
  </crystal>
  <varray name="positions" >
   <v>       0.46460755       0.99984919       0.66670403 </v>
   <v>       0.99992460       0.46458094       0.33331465 </v>
   <v>       0.53529045       0.53521504       0.99998132 </v>
   <v>       0.13564747       0.72415776       0.55431263 </v>
   <v>       0.27599668       0.41148324       0.22085925 </v>
   <v>       0.58845688       0.86467043       0.88739444 </v>
   <v>       0.41152101       0.27619274       0.77926841 </v>
   <v>       0.86451083       0.58847253       0.11248171 </v>
   <v>       0.72417857       0.13564617       0.44568356 </v>
  </varray>
 </structure>
 <calculation>
  <scstep>
   <time name="dav">    1.12    1.12</time>
   <time name="total">    1.15    1.14</time>
   <energy>
    <i name="alphaZ">     71.30271804 </i>
    <i name="ewald">  -1930.19264797 </i>
    <i name="hartreedc">   -909.39756496 </i>
    <i name="XCdc">    141.70970659 </i>
    <i name="pawpsdc">   2343.66826019 </i>
    <i name="pawaedc">  -2301.68043871 </i>
    <i name="eentropy">     -0.00948336 </i>
    <i name="bandstr">    -14.49823372 </i>
    <i name="atom">   2903.33737771 </i>
    <i name="e_fr_energy">    304.23969382 </i>
    <i name="e_wo_entrp">    304.24917717 </i>
    <i name="e_0_energy">    304.24443550 </i>
   </energy>
  </scstep>
  <scstep>
   <time name="dav">    1.24    1.24</time>
   <time name="total">    1.24    1.24</time>
   <energy>
    <i name="e_fr_energy">    -61.45405850 </i>
    <i name="e_wo_entrp">    -61.45405850 </i>
    <i name="e_0_energy">    -61.45405850 </i>
   </energy>
  </scstep>
  <scstep>
   <time name="dav">    1.15    1.16</time>
   <time name="total">    1.15    1.16</time>
   <energy>
    <i name="e_fr_energy">    -80.17821645 </i>
    <i name="e_wo_entrp">    -80.17821645 </i>
    <i name="e_0_energy">    -80.17821645 </i>
   </energy>
  </scstep>
  <scstep>
   <time name="dav">    1.17    1.17</time>
   <time name="total">    1.17    1.17</time>
   <energy>
    <i name="e_fr_energy">    -80.41856731 </i>
    <i name="e_wo_entrp">    -80.41856731 </i>
    <i name="e_0_energy">    -80.41856731 </i>
   </energy>
  </scstep>
  <scstep>
   <time name="dav">    1.15    1.15</time>
   <time name="total">    1.32    1.30</time>
   <energy>
    <i name="e_fr_energy">    -80.42320935 </i>
    <i name="e_wo_entrp">    -80.42320935 </i>
    <i name="e_0_energy">    -80.42320935 </i>
   </energy>
  </scstep>
  <scstep>
   <time name="diag">    0.12    0.12</time>
   <time name="diis">    1.30    1.31</time>
   <time name="orth">    0.01    0.01</time>
   <time name="total">    1.63    1.59</time>
   <energy>
    <i name="e_fr_energy">    -70.67397541 </i>
    <i name="e_wo_entrp">    -70.67397541 </i>
    <i name="e_0_energy">    -70.67397541 </i>
   </energy>
  </scstep>
  <scstep>
   <time name="diag">    0.12    0.12</time>
   <time name="diis">    1.44    1.44</time>
   <time name="orth">    0.01    0.01</time>
   <time name="total">    1.77    1.73</time>
   <energy>
    <i name="e_fr_energy">    -70.97616535 </i>
    <i name="e_wo_entrp">    -70.97616535 </i>
    <i name="e_0_energy">    -70.97616535 </i>
   </energy>
  </scstep>
  <scstep>
   <time name="diag">    0.12    0.12</time>
   <time name="diis">    1.44    1.45</time>
   <time name="orth">    0.01    0.01</time>
   <time name="total">    1.77    1.73</time>
   <energy>
    <i name="e_fr_energy">    -70.96815724 </i>
    <i name="e_wo_entrp">    -70.96815724 </i>
    <i name="e_0_energy">    -70.96815724 </i>
   </energy>
  </scstep>
  <scstep>
   <time name="diag">    0.12    0.12</time>
   <time name="diis">    1.46    1.47</time>
   <time name="orth">    0.01    0.01</time>
   <time name="total">    1.80    1.75</time>
   <energy>
    <i name="e_fr_energy">    -70.98724536 </i>
    <i name="e_wo_entrp">    -70.98724536 </i>
    <i name="e_0_energy">    -70.98724536 </i>
   </energy>
  </scstep>
  <scstep>
   <time name="diag">    0.12    0.12</time>
   <time name="diis">    1.47    1.48</time>
   <time name="orth">    0.01    0.01</time>
   <time name="total">    1.81    1.76</time>
   <energy>
    <i name="e_fr_energy">    -70.99251912 </i>
    <i name="e_wo_entrp">    -70.99251912 </i>
    <i name="e_0_energy">    -70.99251912 </i>
   </energy>
  </scstep>
  <scstep>
   <time name="diag">    0.12    0.12</time>
   <time name="diis">    1.46    1.47</time>
   <time name="orth">    0.01    0.01</time>
   <time name="total">    1.80    1.75</time>
   <energy>
    <i name="e_fr_energy">    -70.98869115 </i>
    <i name="e_wo_entrp">    -70.98869115 </i>
    <i name="e_0_energy">    -70.98869115 </i>
   </energy>
  </scstep>
  <scstep>
   <time name="diag">    0.12    0.12</time>
   <time name="diis">    1.47    1.48</time>
   <time name="orth">    0.01    0.01</time>
   <time name="total">    1.81    1.76</time>
   <energy>
    <i name="e_fr_energy">    -70.98929765 </i>
    <i name="e_wo_entrp">    -70.98929765 </i>
    <i name="e_0_energy">    -70.98929765 </i>
   </energy>
  </scstep>
  <scstep>
   <time name="diag">    0.12    0.12</time>
   <time name="diis">    1.56    1.57</time>
   <time name="orth">    0.01    0.01</time>
   <time name="total">    1.89    1.85</time>
   <energy>
    <i name="e_fr_energy">    -70.98906474 </i>
    <i name="e_wo_entrp">    -70.98906474 </i>
    <i name="e_0_energy">    -70.98906474 </i>
   </energy>
  </scstep>
  <scstep>
   <time name="diag">    0.12    0.12</time>
   <time name="diis">    1.48    1.49</time>
   <time name="orth">    0.01    0.01</time>
   <time name="total">    1.82    1.77</time>
   <energy>
    <i name="e_fr_energy">    -70.98901892 </i>
    <i name="e_wo_entrp">    -70.98901892 </i>
    <i name="e_0_energy">    -70.98901892 </i>
   </energy>
  </scstep>
  <scstep>
   <time name="diag">    0.12    0.12</time>
   <time name="diis">    1.59    1.60</time>
   <time name="orth">    0.01    0.01</time>
   <time name="total">    1.92    1.88</time>
   <energy>
    <i name="e_fr_energy">    -70.98901481 </i>
    <i name="e_wo_entrp">    -70.98901481 </i>
    <i name="e_0_energy">    -70.98901481 </i>
   </energy>
  </scstep>
  <scstep>
   <time name="diag">    0.12    0.12</time>
   <time name="diis">    1.48    1.48</time>
   <time name="orth">    0.01    0.01</time>
   <time name="total">    1.81    1.77</time>
   <energy>
    <i name="e_fr_energy">    -70.98901375 </i>
    <i name="e_wo_entrp">    -70.98901375 </i>
    <i name="e_0_energy">    -70.98901375 </i>
   </energy>
  </scstep>
  <scstep>
   <time name="diag">    0.12    0.12</time>
   <time name="diis">    1.48    1.49</time>
   <time name="orth">    0.01    0.01</time>
   <time name="total">    1.82    1.77</time>
   <energy>
    <i name="e_fr_energy">    -70.98901400 </i>
    <i name="e_wo_entrp">    -70.98901400 </i>
    <i name="e_0_energy">    -70.98901400 </i>
   </energy>
  </scstep>
  <scstep>
   <time name="diag">    0.12    0.12</time>
   <time name="diis">    1.58    1.59</time>
   <time name="orth">    0.01    0.01</time>
   <time name="total">    1.91    1.87</time>
   <energy>
    <i name="e_fr_energy">    -70.98901422 </i>
    <i name="e_wo_entrp">    -70.98901422 </i>
    <i name="e_0_energy">    -70.98901422 </i>
   </energy>
  </scstep>
  <scstep>
   <time name="diag">    0.12    0.12</time>
   <time name="diis">    1.47    1.48</time>
   <time name="orth">    0.01    0.01</time>
   <time name="total">    1.81    1.76</time>
   <energy>
    <i name="e_fr_energy">    -70.98901419 </i>
    <i name="e_wo_entrp">    -70.98901419 </i>
    <i name="e_0_energy">    -70.98901419 </i>
   </energy>
  </scstep>
  <scstep>
   <time name="diag">    0.12    0.12</time>
   <time name="diis">    1.47    1.48</time>
   <time name="orth">    0.01    0.01</time>
   <time name="total">    1.81    1.76</time>
   <energy>
    <i name="e_fr_energy">    -70.98901422 </i>
    <i name="e_wo_entrp">    -70.98901422 </i>
    <i name="e_0_energy">    -70.98901422 </i>
   </energy>
  </scstep>
  <scstep>
   <time name="diag">    0.12    0.12</time>
   <time name="diis">    1.01    1.02</time>
   <time name="orth">    0.01    0.01</time>
   <time name="total">    1.35    1.30</time>
   <energy>
    <i name="e_fr_energy">    -70.98901419 </i>
    <i name="e_wo_entrp">    -70.98901419 </i>
    <i name="e_0_energy">    -70.98901419 </i>
   </energy>
  </scstep>
  <scstep>
   <time name="diag">    0.12    0.12</time>
   <time name="diis">    0.99    1.00</time>
   <time name="orth">    0.01    0.01</time>
   <time name="total">    1.15    1.13</time>
   <energy>
    <i name="alphaZ">     71.30271804 </i>
    <i name="ewald">  -1930.19264797 </i>
    <i name="hartreedc">  -1040.55844861 </i>
    <i name="XCdc">    150.68552944 </i>
    <i name="pawpsdc">   8045.55969167 </i>
    <i name="pawaedc">  -8005.93752354 </i>
    <i name="eentropy">     -0.00000000 </i>
    <i name="bandstr">   -265.18571093 </i>
    <i name="atom">   2903.33737771 </i>
    <i name="e_fr_energy">    -70.98901419 </i>
    <i name="e_wo_entrp">    -70.98901419 </i>
    <i name="e_0_energy">    -70.98901419 </i>
   </energy>
  </scstep>
  <structure>
   <crystal>
    <varray name="basis" >
     <v>       4.87342988       0.00000000       0.00000000 </v>
     <v>      -2.43671494       4.22051408       0.00000000 </v>
     <v>       0.00000000       0.00000000       5.37418982 </v>
    </varray>
    <i name="volume">    110.53837516 </i>
    <varray name="rec_basis" >
     <v>       0.20519429       0.11846898      -0.00000000 </v>
     <v>       0.00000000       0.23693796       0.00000000 </v>
     <v>       0.00000000      -0.00000000       0.18607456 </v>
    </varray>
   </crystal>
   <varray name="positions" >
    <v>       0.46460755       0.99984919       0.66670403 </v>
    <v>       0.99992460       0.46458094       0.33331465 </v>
    <v>       0.53529045       0.53521504       0.99998132 </v>
    <v>       0.13564747       0.72415776       0.55431263 </v>
    <v>       0.27599668       0.41148324       0.22085925 </v>
    <v>       0.58845688       0.86467043       0.88739444 </v>
    <v>       0.41152101       0.27619274       0.77926841 </v>
    <v>       0.86451083       0.58847253       0.11248171 </v>
    <v>       0.72417857       0.13564617       0.44568356 </v>
   </varray>
  </structure>
  <varray name="forces" >
   <v>       0.01816236       0.07779532      -0.02455334 </v>
   <v>       0.00555810       0.06839367       0.01209869 </v>
   <v>      -0.02349382       0.03687818       0.01247008 </v>
   <v>      -0.29980600      -0.05250317       0.10753125 </v>
   <v>       0.14193121      -0.23134446       0.15156190 </v>
   <v>       0.17628676       0.19245072       0.20115666 </v>
   <v>      -0.25103171      -0.05032757      -0.19933593 </v>
   <v>       0.13523003       0.24417674      -0.15483046 </v>
   <v>       0.09716308      -0.28551943      -0.10609885 </v>
  </varray>
  <varray name="stress" >
   <v>      71.96750516       0.85395936       0.99299829 </v>
   <v>       0.85395920      71.97137128      -0.00012780 </v>
   <v>       0.99299829      -0.00012809      73.62160240 </v>
  </varray>
  <energy>
   <i name="e_fr_energy">    -70.98901419 </i>
   <i name="e_wo_entrp">    -70.98901419 </i>
   <i name="e_0_energy">    -70.98901419 </i>
  </energy>
  <scstep>
   <time name="total">   19.77    4.11</time>
   <energy>
    <i name="e_fr_energy">   -182.48894159 </i>
    <i name="e_wo_entrp">   -182.48894159 </i>
    <i name="e_0_energy">   -182.48894159 </i>
   </energy>
  </scstep>
  <scstep>
   <time name="total">   19.33    3.63</time>
   <energy>
    <i name="e_fr_energy">   -172.60747405 </i>
    <i name="e_wo_entrp">   -172.60747405 </i>
    <i name="e_0_energy">   -172.60747405 </i>
   </energy>
  </scstep>
  <scstep>
   <time name="total">   19.33    3.64</time>
   <energy>
    <i name="e_fr_energy">   -172.75496436 </i>
    <i name="e_wo_entrp">   -172.75496436 </i>
    <i name="e_0_energy">   -172.75496436 </i>
   </energy>
  </scstep>
  <scstep>
   <time name="total">    1.40    1.41</time>
   <energy>
    <i name="e_fr_energy">   -172.76235206 </i>
    <i name="e_wo_entrp">   -172.76235206 </i>
    <i name="e_0_energy">   -172.76235206 </i>
   </energy>
  </scstep>
  <scstep>
   <time name="total">    1.41    1.42</time>
   <energy>
    <i name="e_fr_energy">   -172.76255301 </i>
    <i name="e_wo_entrp">   -172.76255301 </i>
    <i name="e_0_energy">   -172.76255301 </i>
   </energy>
  </scstep>
  <scstep>
   <time name="total">    1.45    1.46</time>
   <energy>
    <i name="e_fr_energy">   -172.76256090 </i>
    <i name="e_wo_entrp">   -172.76256090 </i>
    <i name="e_0_energy">   -172.76256090 </i>
   </energy>
  </scstep>
  <scstep>
   <time name="total">    1.47    1.48</time>
   <energy>
    <i name="e_fr_energy">   -172.76255947 </i>
    <i name="e_wo_entrp">   -172.76255947 </i>
    <i name="e_0_energy">   -172.76255947 </i>
   </energy>
  </scstep>
  <scstep>
   <time name="total">    1.48    1.49</time>
   <energy>
    <i name="e_fr_energy">   -172.76255591 </i>
    <i name="e_wo_entrp">   -172.76255591 </i>
    <i name="e_0_energy">   -172.76255591 </i>
   </energy>
  </scstep>
  <scstep>
   <time name="total">    1.48    1.49</time>
   <energy>
    <i name="e_fr_energy">   -172.76255374 </i>
    <i name="e_wo_entrp">   -172.76255374 </i>
    <i name="e_0_energy">   -172.76255374 </i>
   </energy>
  </scstep>
  <scstep>
   <time name="total">    1.50    1.50</time>
   <energy>
    <i name="e_fr_energy">   -172.76255136 </i>
    <i name="e_wo_entrp">   -172.76255136 </i>
    <i name="e_0_energy">   -172.76255136 </i>
   </energy>
  </scstep>
  <scstep>
   <time name="total">   19.86    4.11</time>
   <energy>
    <i name="e_fr_energy">   -182.31838708 </i>
    <i name="e_wo_entrp">   -182.31838708 </i>
    <i name="e_0_energy">   -182.31838708 </i>
   </energy>
  </scstep>
  <scstep>
   <time name="total">   19.36    3.62</time>
   <energy>
    <i name="e_fr_energy">   -172.61123171 </i>
    <i name="e_wo_entrp">   -172.61123171 </i>
    <i name="e_0_energy">   -172.61123171 </i>
   </energy>
  </scstep>
  <scstep>
   <time name="total">   19.44    3.66</time>
   <energy>
    <i name="e_fr_energy">   -172.75493892 </i>
    <i name="e_wo_entrp">   -172.75493892 </i>
    <i name="e_0_energy">   -172.75493892 </i>
   </energy>
  </scstep>
  <scstep>
   <time name="total">    1.40    1.41</time>
   <energy>
    <i name="e_fr_energy">   -172.76217748 </i>
    <i name="e_wo_entrp">   -172.76217748 </i>
    <i name="e_0_energy">   -172.76217748 </i>
   </energy>
  </scstep>
  <scstep>
   <time name="total">    1.41    1.42</time>
   <energy>
    <i name="e_fr_energy">   -172.76234860 </i>
    <i name="e_wo_entrp">   -172.76234860 </i>
    <i name="e_0_energy">   -172.76234860 </i>
   </energy>
  </scstep>
  <scstep>
   <time name="total">    1.44    1.45</time>
   <energy>
    <i name="e_fr_energy">   -172.76236330 </i>
    <i name="e_wo_entrp">   -172.76236330 </i>
    <i name="e_0_energy">   -172.76236330 </i>
   </energy>
  </scstep>
  <scstep>
   <time name="total">    1.47    1.47</time>
   <energy>
    <i name="e_fr_energy">   -172.76236582 </i>
    <i name="e_wo_entrp">   -172.76236582 </i>
    <i name="e_0_energy">   -172.76236582 </i>
   </energy>
  </scstep>
  <scstep>
   <time name="total">    1.48    1.49</time>
   <energy>
    <i name="e_fr_energy">   -172.76236583 </i>
    <i name="e_wo_entrp">   -172.76236583 </i>
    <i name="e_0_energy">   -172.76236583 </i>
   </energy>
  </scstep>
  <scstep>
   <time name="total">    1.48    1.49</time>
   <energy>
    <i name="e_fr_energy">   -172.76236600 </i>
    <i name="e_wo_entrp">   -172.76236600 </i>
    <i name="e_0_energy">   -172.76236600 </i>
   </energy>
  </scstep>
  <scstep>
   <time name="total">    1.49    1.50</time>
   <energy>
    <i name="e_fr_energy">   -172.76236601 </i>
    <i name="e_wo_entrp">   -172.76236601 </i>
    <i name="e_0_energy">   -172.76236601 </i>
   </energy>
  </scstep>
  <scstep>
   <time name="total">   19.82    4.11</time>
   <energy>
    <i name="e_fr_energy">   -182.14929781 </i>
    <i name="e_wo_entrp">   -182.14929781 </i>
    <i name="e_0_energy">   -182.14929781 </i>
   </energy>
  </scstep>
  <scstep>
   <time name="total">   19.31    3.60</time>
   <energy>
    <i name="e_fr_energy">   -172.56205227 </i>
    <i name="e_wo_entrp">   -172.56205227 </i>
    <i name="e_0_energy">   -172.56205227 </i>
   </energy>
  </scstep>
  <scstep>
   <time name="total">   19.42    3.65</time>
   <energy>
    <i name="e_fr_energy">   -172.71074702 </i>
    <i name="e_wo_entrp">   -172.71074702 </i>
    <i name="e_0_energy">   -172.71074702 </i>
   </energy>
  </scstep>
  <scstep>
   <time name="total">    1.40    1.40</time>
   <energy>
    <i name="e_fr_energy">   -172.71763052 </i>
    <i name="e_wo_entrp">   -172.71763052 </i>
    <i name="e_0_energy">   -172.71763052 </i>
   </energy>
  </scstep>
  <scstep>
   <time name="total">    1.40    1.41</time>
   <energy>
    <i name="e_fr_energy">   -172.71776774 </i>
    <i name="e_wo_entrp">   -172.71776774 </i>
    <i name="e_0_energy">   -172.71776774 </i>
   </energy>
  </scstep>
  <scstep>
   <time name="total">    1.43    1.44</time>
   <energy>
    <i name="e_fr_energy">   -172.71777640 </i>
    <i name="e_wo_entrp">   -172.71777640 </i>
    <i name="e_0_energy">   -172.71777640 </i>
   </energy>
  </scstep>
  <scstep>
   <time name="total">    1.46    1.47</time>
   <energy>
    <i name="e_fr_energy">   -172.71778829 </i>
    <i name="e_wo_entrp">   -172.71778829 </i>
    <i name="e_0_energy">   -172.71778829 </i>
   </energy>
  </scstep>
  <scstep>
   <time name="total">    1.47    1.48</time>
   <energy>
    <i name="e_fr_energy">   -172.71776214 </i>
    <i name="e_wo_entrp">   -172.71776214 </i>
    <i name="e_0_energy">   -172.71776214 </i>
   </energy>
  </scstep>
  <scstep>
   <time name="total">    1.48    1.49</time>
   <energy>
    <i name="e_fr_energy">   -172.71776502 </i>
    <i name="e_wo_entrp">   -172.71776502 </i>
    <i name="e_0_energy">   -172.71776502 </i>
   </energy>
  </scstep>
  <scstep>
   <time name="total">    1.49    1.50</time>
   <energy>
    <i name="e_fr_energy">   -172.71776940 </i>
    <i name="e_wo_entrp">   -172.71776940 </i>
    <i name="e_0_energy">   -172.71776940 </i>
   </energy>
  </scstep>
  <scstep>
   <time name="total">    2.32    1.82</time>
   <energy>
    <i name="e_fr_energy">     -0.48311381 </i>
    <i name="e_wo_entrp">     -0.48311381 </i>
    <i name="e_0_energy">     -0.48311381 </i>
   </energy>
  </scstep>
  <scstep>
   <time name="total">    2.31    1.82</time>
   <energy>
    <i name="e_fr_energy">     -0.48537174 </i>
    <i name="e_wo_entrp">     -0.48537174 </i>
    <i name="e_0_energy">     -0.48537174 </i>
   </energy>
  </scstep>
  <scstep>
   <time name="total">    2.33    1.83</time>
   <energy>
    <i name="e_fr_energy">     -0.48555874 </i>
    <i name="e_wo_entrp">     -0.48555874 </i>
    <i name="e_0_energy">     -0.48555874 </i>
   </energy>
  </scstep>
  <scstep>
   <time name="total">    2.34    1.84</time>
   <energy>
    <i name="e_fr_energy">     -0.48556729 </i>
    <i name="e_wo_entrp">     -0.48556729 </i>
    <i name="e_0_energy">     -0.48556729 </i>
   </energy>
  </scstep>
  <scstep>
   <time name="total">    2.38    1.85</time>
   <energy>
    <i name="e_fr_energy">     -0.48556759 </i>
    <i name="e_wo_entrp">     -0.48556759 </i>
    <i name="e_0_energy">     -0.48556759 </i>
   </energy>
  </scstep>
  <scstep>
   <time name="total">    2.27    1.77</time>
   <energy>
    <i name="e_fr_energy">     -0.48556761 </i>
    <i name="e_wo_entrp">     -0.48556761 </i>
    <i name="e_0_energy">     -0.48556761 </i>
   </energy>
  </scstep>
  <scstep>
   <time name="total">    2.20    1.70</time>
   <energy>
    <i name="e_fr_energy">     -0.48556761 </i>
    <i name="e_wo_entrp">     -0.48556761 </i>
    <i name="e_0_energy">     -0.48556761 </i>
   </energy>
  </scstep>
  <scstep>
   <time name="total">    2.19    1.69</time>
   <energy>
    <i name="e_fr_energy">     -0.48556761 </i>
    <i name="e_wo_entrp">     -0.48556761 </i>
    <i name="e_0_energy">     -0.48556761 </i>
   </energy>
  </scstep>
  <scstep>
   <time name="total">    2.18    1.68</time>
   <energy>
    <i name="e_fr_energy">     -0.48556761 </i>
    <i name="e_wo_entrp">     -0.48556761 </i>
    <i name="e_0_energy">     -0.48556761 </i>
   </energy>
  </scstep>
  <scstep>
   <time name="total">    2.32    1.81</time>
   <energy>
    <i name="e_fr_energy">     -0.48315499 </i>
    <i name="e_wo_entrp">     -0.48315499 </i>
    <i name="e_0_energy">     -0.48315499 </i>
   </energy>
  </scstep>
  <scstep>
   <time name="total">    2.31    1.82</time>
   <energy>
    <i name="e_fr_energy">     -0.48536973 </i>
    <i name="e_wo_entrp">     -0.48536973 </i>
    <i name="e_0_energy">     -0.48536973 </i>
   </energy>
  </scstep>
  <scstep>
   <time name="total">    2.33    1.83</time>
   <energy>
    <i name="e_fr_energy">     -0.48555861 </i>
    <i name="e_wo_entrp">     -0.48555861 </i>
    <i name="e_0_energy">     -0.48555861 </i>
   </energy>
  </scstep>
  <scstep>
   <time name="total">    2.33    1.84</time>
   <energy>
    <i name="e_fr_energy">     -0.48556731 </i>
    <i name="e_wo_entrp">     -0.48556731 </i>
    <i name="e_0_energy">     -0.48556731 </i>
   </energy>
  </scstep>
  <scstep>
   <time name="total">    2.33    1.84</time>
   <energy>
    <i name="e_fr_energy">     -0.48556761 </i>
    <i name="e_wo_entrp">     -0.48556761 </i>
    <i name="e_0_energy">     -0.48556761 </i>
   </energy>
  </scstep>
  <scstep>
   <time name="total">    2.26    1.77</time>
   <energy>
    <i name="e_fr_energy">     -0.48556763 </i>
    <i name="e_wo_entrp">     -0.48556763 </i>
    <i name="e_0_energy">     -0.48556763 </i>
   </energy>
  </scstep>
  <scstep>
   <time name="total">    2.19    1.69</time>
   <energy>
    <i name="e_fr_energy">     -0.48556764 </i>
    <i name="e_wo_entrp">     -0.48556764 </i>
    <i name="e_0_energy">     -0.48556764 </i>
   </energy>
  </scstep>
  <scstep>
   <time name="total">    2.18    1.68</time>
   <energy>
    <i name="e_fr_energy">     -0.48556764 </i>
    <i name="e_wo_entrp">     -0.48556764 </i>
    <i name="e_0_energy">     -0.48556764 </i>
   </energy>
  </scstep>
  <scstep>
   <time name="total">    2.16    1.67</time>
   <energy>
    <i name="e_fr_energy">     -0.48556764 </i>
    <i name="e_wo_entrp">     -0.48556764 </i>
    <i name="e_0_energy">     -0.48556764 </i>
   </energy>
  </scstep>
  <scstep>
   <time name="total">    2.31    1.81</time>
   <energy>
    <i name="e_fr_energy">     -0.48761078 </i>
    <i name="e_wo_entrp">     -0.48761078 </i>
    <i name="e_0_energy">     -0.48761078 </i>
   </energy>
  </scstep>
  <scstep>
   <time name="total">    2.29    1.80</time>
   <energy>
    <i name="e_fr_energy">     -0.48965488 </i>
    <i name="e_wo_entrp">     -0.48965488 </i>
    <i name="e_0_energy">     -0.48965488 </i>
   </energy>
  </scstep>
  <scstep>
   <time name="total">    2.31    1.82</time>
   <energy>
    <i name="e_fr_energy">     -0.48984585 </i>
    <i name="e_wo_entrp">     -0.48984585 </i>
    <i name="e_0_energy">     -0.48984585 </i>
   </energy>
  </scstep>
  <scstep>
   <time name="total">    2.33    1.84</time>
   <energy>
    <i name="e_fr_energy">     -0.48985477 </i>
    <i name="e_wo_entrp">     -0.48985477 </i>
    <i name="e_0_energy">     -0.48985477 </i>
   </energy>
  </scstep>
  <scstep>
   <time name="total">    2.33    1.83</time>
   <energy>
    <i name="e_fr_energy">     -0.48985508 </i>
    <i name="e_wo_entrp">     -0.48985508 </i>
    <i name="e_0_energy">     -0.48985508 </i>
   </energy>
  </scstep>
  <scstep>
   <time name="total">    2.25    1.76</time>
   <energy>
    <i name="e_fr_energy">     -0.48985510 </i>
    <i name="e_wo_entrp">     -0.48985510 </i>
    <i name="e_0_energy">     -0.48985510 </i>
   </energy>
  </scstep>
  <scstep>
   <time name="total">    2.18    1.69</time>
   <energy>
    <i name="e_fr_energy">     -0.48985510 </i>
    <i name="e_wo_entrp">     -0.48985510 </i>
    <i name="e_0_energy">     -0.48985510 </i>
   </energy>
  </scstep>
  <scstep>
   <time name="total">    2.16    1.66</time>
   <energy>
    <i name="e_fr_energy">     -0.48985510 </i>
    <i name="e_wo_entrp">     -0.48985510 </i>
    <i name="e_0_energy">     -0.48985510 </i>
   </energy>
  </scstep>
  <scstep>
   <time name="total">    2.15    1.66</time>
   <energy>
    <i name="e_fr_energy">     -0.48985510 </i>
    <i name="e_wo_entrp">     -0.48985510 </i>
    <i name="e_0_energy">     -0.48985510 </i>
   </energy>
  </scstep>
  <scstep>
   <time name="total">    2.15    1.65</time>
   <energy>
    <i name="e_fr_energy">     -0.48985510 </i>
    <i name="e_wo_entrp">     -0.48985510 </i>
    <i name="e_0_energy">     -0.48985510 </i>
   </energy>
  </scstep>
  <varray name="dielectric_ipa" >
   <v>       2.58976111      -0.00011580      -0.00025169 </v>
   <v>      -0.00011222       2.58975723      -0.00000225 </v>
   <v>      -0.00025254      -0.00000385       2.60380132 </v>
  </varray>
  <kpoints>
   <generation param="Gamma">
    <v type="int" name="divisions">       4        4        4 </v>
    <v name="usershift">      0.00000000       0.00000000       0.00000000 </v>
    <v name="genvec1">      0.25000000       0.00000000       0.00000000 </v>
    <v name="genvec2">      0.00000000       0.25000000       0.00000000 </v>
    <v name="genvec3">      0.00000000       0.00000000       0.25000000 </v>
    <v name="shift">      0.00000000       0.00000000       0.00000000 </v>
   </generation>
   <varray name="kpointlist" >
    <v>       0.00000000       0.00000000       0.00000000 </v>
    <v>       0.25000000       0.00000000       0.00000000 </v>
    <v>       0.00000000       0.25000000       0.00000000 </v>
    <v>      -0.25000000       0.25000000       0.00000000 </v>
    <v>       0.50000000       0.00000000       0.00000000 </v>
    <v>       0.00000000       0.50000000       0.00000000 </v>
    <v>       0.50000000       0.50000000       0.00000000 </v>
    <v>       0.25000000       0.25000000       0.00000000 </v>
    <v>      -0.25000000       0.50000000       0.00000000 </v>
    <v>       0.50000000       0.25000000       0.00000000 </v>
    <v>       0.00000000       0.00000000       0.25000000 </v>
    <v>       0.25000000       0.00000000       0.25000000 </v>
    <v>       0.00000000       0.25000000       0.25000000 </v>
    <v>      -0.25000000       0.25000000       0.25000000 </v>
    <v>      -0.25000000       0.00000000       0.25000000 </v>
    <v>       0.00000000      -0.25000000       0.25000000 </v>
    <v>       0.25000000      -0.25000000       0.25000000 </v>
    <v>       0.50000000       0.00000000       0.25000000 </v>
    <v>       0.00000000       0.50000000       0.25000000 </v>
    <v>       0.50000000       0.50000000       0.25000000 </v>
    <v>       0.25000000       0.25000000       0.25000000 </v>
    <v>      -0.25000000       0.50000000       0.25000000 </v>
    <v>       0.50000000       0.25000000       0.25000000 </v>
    <v>      -0.25000000      -0.25000000       0.25000000 </v>
    <v>       0.25000000       0.50000000       0.25000000 </v>
    <v>       0.50000000      -0.25000000       0.25000000 </v>
    <v>       0.00000000       0.00000000       0.50000000 </v>
    <v>       0.25000000       0.00000000       0.50000000 </v>
    <v>       0.00000000       0.25000000       0.50000000 </v>
    <v>      -0.25000000       0.25000000       0.50000000 </v>
    <v>       0.50000000       0.00000000       0.50000000 </v>
    <v>       0.00000000       0.50000000       0.50000000 </v>
    <v>       0.50000000       0.50000000       0.50000000 </v>
    <v>       0.25000000       0.25000000       0.50000000 </v>
    <v>      -0.25000000       0.50000000       0.50000000 </v>
    <v>       0.50000000       0.25000000       0.50000000 </v>
   </varray>
   <varray name="weights" >
    <v>       0.01562500 </v>
    <v>       0.03125000 </v>
    <v>       0.03125000 </v>
    <v>       0.03125000 </v>
    <v>       0.01562500 </v>
    <v>       0.01562500 </v>
    <v>       0.01562500 </v>
    <v>       0.03125000 </v>
    <v>       0.03125000 </v>
    <v>       0.03125000 </v>
    <v>       0.03125000 </v>
    <v>       0.03125000 </v>
    <v>       0.03125000 </v>
    <v>       0.03125000 </v>
    <v>       0.03125000 </v>
    <v>       0.03125000 </v>
    <v>       0.03125000 </v>
    <v>       0.03125000 </v>
    <v>       0.03125000 </v>
    <v>       0.03125000 </v>
    <v>       0.03125000 </v>
    <v>       0.03125000 </v>
    <v>       0.03125000 </v>
    <v>       0.03125000 </v>
    <v>       0.03125000 </v>
    <v>       0.03125000 </v>
    <v>       0.01562500 </v>
    <v>       0.03125000 </v>
    <v>       0.03125000 </v>
    <v>       0.03125000 </v>
    <v>       0.01562500 </v>
    <v>       0.01562500 </v>
    <v>       0.01562500 </v>
    <v>       0.03125000 </v>
    <v>       0.03125000 </v>
    <v>       0.03125000 </v>
   </varray>
  </kpoints>
  <scstep>
   <time name="total">    2.32    1.82</time>
   <energy>
    <i name="e_fr_energy">     -0.48311381 </i>
    <i name="e_wo_entrp">     -0.48311381 </i>
    <i name="e_0_energy">     -0.48311381 </i>
   </energy>
  </scstep>
  <scstep>
   <time name="total">    2.39    1.88</time>
   <energy>
    <i name="e_fr_energy">     -0.48537174 </i>
    <i name="e_wo_entrp">     -0.48537174 </i>
    <i name="e_0_energy">     -0.48537174 </i>
   </energy>
  </scstep>
  <scstep>
   <time name="total">    2.42    1.90</time>
   <energy>
    <i name="e_fr_energy">     -0.46537323 </i>
    <i name="e_wo_entrp">     -0.46537323 </i>
    <i name="e_0_energy">     -0.46537323 </i>
   </energy>
  </scstep>
  <scstep>
   <time name="total">    2.42    1.90</time>
   <energy>
    <i name="e_fr_energy">     -0.47622207 </i>
    <i name="e_wo_entrp">     -0.47622207 </i>
    <i name="e_0_energy">     -0.47622207 </i>
   </energy>
  </scstep>
  <scstep>
   <time name="total">    2.40    1.89</time>
   <energy>
    <i name="e_fr_energy">     -0.49400047 </i>
    <i name="e_wo_entrp">     -0.49400047 </i>
    <i name="e_0_energy">     -0.49400047 </i>
   </energy>
  </scstep>
  <scstep>
   <time name="total">    2.38    1.87</time>
   <energy>
    <i name="e_fr_energy">     -0.49692234 </i>
    <i name="e_wo_entrp">     -0.49692234 </i>
    <i name="e_0_energy">     -0.49692234 </i>
   </energy>
  </scstep>
  <scstep>
   <time name="total">    2.43    1.91</time>
   <energy>
    <i name="e_fr_energy">     -0.49715897 </i>
    <i name="e_wo_entrp">     -0.49715897 </i>
    <i name="e_0_energy">     -0.49715897 </i>
   </energy>
  </scstep>
  <scstep>
   <time name="total">    2.43    1.92</time>
   <energy>
    <i name="e_fr_energy">     -0.49738892 </i>
    <i name="e_wo_entrp">     -0.49738892 </i>
    <i name="e_0_energy">     -0.49738892 </i>
   </energy>
  </scstep>
  <scstep>
   <time name="total">    2.43    1.92</time>
   <energy>
    <i name="e_fr_energy">     -0.49745411 </i>
    <i name="e_wo_entrp">     -0.49745411 </i>
    <i name="e_0_energy">     -0.49745411 </i>
   </energy>
  </scstep>
  <scstep>
   <time name="total">    2.47    1.96</time>
   <energy>
    <i name="e_fr_energy">     -0.49745001 </i>
    <i name="e_wo_entrp">     -0.49745001 </i>
    <i name="e_0_energy">     -0.49745001 </i>
   </energy>
  </scstep>
  <scstep>
   <time name="total">    2.48    1.96</time>
   <energy>
    <i name="e_fr_energy">     -0.49745290 </i>
    <i name="e_wo_entrp">     -0.49745290 </i>
    <i name="e_0_energy">     -0.49745290 </i>
   </energy>
  </scstep>
  <scstep>
   <time name="total">    2.44    1.92</time>
   <energy>
    <i name="e_fr_energy">     -0.49745177 </i>
    <i name="e_wo_entrp">     -0.49745177 </i>
    <i name="e_0_energy">     -0.49745177 </i>
   </energy>
  </scstep>
  <scstep>
   <time name="total">    2.44    1.92</time>
   <energy>
    <i name="e_fr_energy">     -0.49745180 </i>
    <i name="e_wo_entrp">     -0.49745180 </i>
    <i name="e_0_energy">     -0.49745180 </i>
   </energy>
  </scstep>
  <scstep>
   <time name="total">    2.48    1.96</time>
   <energy>
    <i name="e_fr_energy">     -0.49745171 </i>
    <i name="e_wo_entrp">     -0.49745171 </i>
    <i name="e_0_energy">     -0.49745171 </i>
   </energy>
  </scstep>
  <kpoints>
   <generation param="Gamma">
    <v type="int" name="divisions">       4        4        4 </v>
    <v name="usershift">      0.00000000       0.00000000       0.00000000 </v>
    <v name="genvec1">      0.25000000       0.00000000       0.00000000 </v>
    <v name="genvec2">      0.00000000       0.25000000       0.00000000 </v>
    <v name="genvec3">      0.00000000       0.00000000       0.25000000 </v>
    <v name="shift">      0.00000000       0.00000000       0.00000000 </v>
   </generation>
   <varray name="kpointlist" >
    <v>       0.00000000       0.00000000       0.00000000 </v>
    <v>       0.25000000       0.00000000       0.00000000 </v>
    <v>       0.00000000       0.25000000       0.00000000 </v>
    <v>      -0.25000000       0.25000000       0.00000000 </v>
    <v>       0.50000000       0.00000000       0.00000000 </v>
    <v>       0.00000000       0.50000000       0.00000000 </v>
    <v>       0.50000000       0.50000000       0.00000000 </v>
    <v>       0.25000000       0.25000000       0.00000000 </v>
    <v>      -0.25000000       0.50000000       0.00000000 </v>
    <v>       0.50000000       0.25000000       0.00000000 </v>
    <v>       0.00000000       0.00000000       0.25000000 </v>
    <v>       0.25000000       0.00000000       0.25000000 </v>
    <v>       0.00000000       0.25000000       0.25000000 </v>
    <v>      -0.25000000       0.25000000       0.25000000 </v>
    <v>      -0.25000000       0.00000000       0.25000000 </v>
    <v>       0.00000000      -0.25000000       0.25000000 </v>
    <v>       0.25000000      -0.25000000       0.25000000 </v>
    <v>       0.50000000       0.00000000       0.25000000 </v>
    <v>       0.00000000       0.50000000       0.25000000 </v>
    <v>       0.50000000       0.50000000       0.25000000 </v>
    <v>       0.25000000       0.25000000       0.25000000 </v>
    <v>      -0.25000000       0.50000000       0.25000000 </v>
    <v>       0.50000000       0.25000000       0.25000000 </v>
    <v>      -0.25000000      -0.25000000       0.25000000 </v>
    <v>       0.25000000       0.50000000       0.25000000 </v>
    <v>       0.50000000      -0.25000000       0.25000000 </v>
    <v>       0.00000000       0.00000000       0.50000000 </v>
    <v>       0.25000000       0.00000000       0.50000000 </v>
    <v>       0.00000000       0.25000000       0.50000000 </v>
    <v>      -0.25000000       0.25000000       0.50000000 </v>
    <v>       0.50000000       0.00000000       0.50000000 </v>
    <v>       0.00000000       0.50000000       0.50000000 </v>
    <v>       0.50000000       0.50000000       0.50000000 </v>
    <v>       0.25000000       0.25000000       0.50000000 </v>
    <v>      -0.25000000       0.50000000       0.50000000 </v>
    <v>       0.50000000       0.25000000       0.50000000 </v>
   </varray>
   <varray name="weights" >
    <v>       0.01562500 </v>
    <v>       0.03125000 </v>
    <v>       0.03125000 </v>
    <v>       0.03125000 </v>
    <v>       0.01562500 </v>
    <v>       0.01562500 </v>
    <v>       0.01562500 </v>
    <v>       0.03125000 </v>
    <v>       0.03125000 </v>
    <v>       0.03125000 </v>
    <v>       0.03125000 </v>
    <v>       0.03125000 </v>
    <v>       0.03125000 </v>
    <v>       0.03125000 </v>
    <v>       0.03125000 </v>
    <v>       0.03125000 </v>
    <v>       0.03125000 </v>
    <v>       0.03125000 </v>
    <v>       0.03125000 </v>
    <v>       0.03125000 </v>
    <v>       0.03125000 </v>
    <v>       0.03125000 </v>
    <v>       0.03125000 </v>
    <v>       0.03125000 </v>
    <v>       0.03125000 </v>
    <v>       0.03125000 </v>
    <v>       0.01562500 </v>
    <v>       0.03125000 </v>
    <v>       0.03125000 </v>
    <v>       0.03125000 </v>
    <v>       0.01562500 </v>
    <v>       0.01562500 </v>
    <v>       0.01562500 </v>
    <v>       0.03125000 </v>
    <v>       0.03125000 </v>
    <v>       0.03125000 </v>
   </varray>
  </kpoints>
  <scstep>
   <time name="total">    2.32    1.82</time>
   <energy>
    <i name="e_fr_energy">     -0.48315499 </i>
    <i name="e_wo_entrp">     -0.48315499 </i>
    <i name="e_0_energy">     -0.48315499 </i>
   </energy>
  </scstep>
  <scstep>
   <time name="total">    2.40    1.89</time>
   <energy>
    <i name="e_fr_energy">     -0.48536973 </i>
    <i name="e_wo_entrp">     -0.48536973 </i>
    <i name="e_0_energy">     -0.48536973 </i>
   </energy>
  </scstep>
  <scstep>
   <time name="total">    2.41    1.90</time>
   <energy>
    <i name="e_fr_energy">     -0.46519633 </i>
    <i name="e_wo_entrp">     -0.46519633 </i>
    <i name="e_0_energy">     -0.46519633 </i>
   </energy>
  </scstep>
  <scstep>
   <time name="total">    2.42    1.90</time>
   <energy>
    <i name="e_fr_energy">     -0.47604078 </i>
    <i name="e_wo_entrp">     -0.47604078 </i>
    <i name="e_0_energy">     -0.47604078 </i>
   </energy>
  </scstep>
  <scstep>
   <time name="total">    2.41    1.89</time>
   <energy>
    <i name="e_fr_energy">     -0.49377711 </i>
    <i name="e_wo_entrp">     -0.49377711 </i>
    <i name="e_0_energy">     -0.49377711 </i>
   </energy>
  </scstep>
  <scstep>
   <time name="total">    2.39    1.87</time>
   <energy>
    <i name="e_fr_energy">     -0.49669382 </i>
    <i name="e_wo_entrp">     -0.49669382 </i>
    <i name="e_0_energy">     -0.49669382 </i>
   </energy>
  </scstep>
  <scstep>
   <time name="total">    2.43    1.91</time>
   <energy>
    <i name="e_fr_energy">     -0.49693636 </i>
    <i name="e_wo_entrp">     -0.49693636 </i>
    <i name="e_0_energy">     -0.49693636 </i>
   </energy>
  </scstep>
  <scstep>
   <time name="total">    2.43    1.91</time>
   <energy>
    <i name="e_fr_energy">     -0.49716603 </i>
    <i name="e_wo_entrp">     -0.49716603 </i>
    <i name="e_0_energy">     -0.49716603 </i>
   </energy>
  </scstep>
  <scstep>
   <time name="total">    2.44    1.93</time>
   <energy>
    <i name="e_fr_energy">     -0.49723198 </i>
    <i name="e_wo_entrp">     -0.49723198 </i>
    <i name="e_0_energy">     -0.49723198 </i>
   </energy>
  </scstep>
  <scstep>
   <time name="total">    2.46    1.94</time>
   <energy>
    <i name="e_fr_energy">     -0.49722690 </i>
    <i name="e_wo_entrp">     -0.49722690 </i>
    <i name="e_0_energy">     -0.49722690 </i>
   </energy>
  </scstep>
  <scstep>
   <time name="total">    2.49    1.97</time>
   <energy>
    <i name="e_fr_energy">     -0.49722782 </i>
    <i name="e_wo_entrp">     -0.49722782 </i>
    <i name="e_0_energy">     -0.49722782 </i>
   </energy>
  </scstep>
  <scstep>
   <time name="total">    2.42    1.91</time>
   <energy>
    <i name="e_fr_energy">     -0.49722784 </i>
    <i name="e_wo_entrp">     -0.49722784 </i>
    <i name="e_0_energy">     -0.49722784 </i>
   </energy>
  </scstep>
  <scstep>
   <time name="total">    2.42    1.91</time>
   <energy>
    <i name="e_fr_energy">     -0.49722787 </i>
    <i name="e_wo_entrp">     -0.49722787 </i>
    <i name="e_0_energy">     -0.49722787 </i>
   </energy>
  </scstep>
  <scstep>
   <time name="total">    2.47    1.96</time>
   <energy>
    <i name="e_fr_energy">     -0.49722784 </i>
    <i name="e_wo_entrp">     -0.49722784 </i>
    <i name="e_0_energy">     -0.49722784 </i>
   </energy>
  </scstep>
  <kpoints>
   <generation param="Gamma">
    <v type="int" name="divisions">       4        4        4 </v>
    <v name="usershift">      0.00000000       0.00000000       0.00000000 </v>
    <v name="genvec1">      0.25000000       0.00000000       0.00000000 </v>
    <v name="genvec2">      0.00000000       0.25000000       0.00000000 </v>
    <v name="genvec3">      0.00000000       0.00000000       0.25000000 </v>
    <v name="shift">      0.00000000       0.00000000       0.00000000 </v>
   </generation>
   <varray name="kpointlist" >
    <v>       0.00000000       0.00000000       0.00000000 </v>
    <v>       0.25000000       0.00000000       0.00000000 </v>
    <v>       0.00000000       0.25000000       0.00000000 </v>
    <v>      -0.25000000       0.25000000       0.00000000 </v>
    <v>       0.50000000       0.00000000       0.00000000 </v>
    <v>       0.00000000       0.50000000       0.00000000 </v>
    <v>       0.50000000       0.50000000       0.00000000 </v>
    <v>       0.25000000       0.25000000       0.00000000 </v>
    <v>      -0.25000000       0.50000000       0.00000000 </v>
    <v>       0.50000000       0.25000000       0.00000000 </v>
    <v>       0.00000000       0.00000000       0.25000000 </v>
    <v>       0.25000000       0.00000000       0.25000000 </v>
    <v>       0.00000000       0.25000000       0.25000000 </v>
    <v>      -0.25000000       0.25000000       0.25000000 </v>
    <v>      -0.25000000       0.00000000       0.25000000 </v>
    <v>       0.00000000      -0.25000000       0.25000000 </v>
    <v>       0.25000000      -0.25000000       0.25000000 </v>
    <v>       0.50000000       0.00000000       0.25000000 </v>
    <v>       0.00000000       0.50000000       0.25000000 </v>
    <v>       0.50000000       0.50000000       0.25000000 </v>
    <v>       0.25000000       0.25000000       0.25000000 </v>
    <v>      -0.25000000       0.50000000       0.25000000 </v>
    <v>       0.50000000       0.25000000       0.25000000 </v>
    <v>      -0.25000000      -0.25000000       0.25000000 </v>
    <v>       0.25000000       0.50000000       0.25000000 </v>
    <v>       0.50000000      -0.25000000       0.25000000 </v>
    <v>       0.00000000       0.00000000       0.50000000 </v>
    <v>       0.25000000       0.00000000       0.50000000 </v>
    <v>       0.00000000       0.25000000       0.50000000 </v>
    <v>      -0.25000000       0.25000000       0.50000000 </v>
    <v>       0.50000000       0.00000000       0.50000000 </v>
    <v>       0.00000000       0.50000000       0.50000000 </v>
    <v>       0.50000000       0.50000000       0.50000000 </v>
    <v>       0.25000000       0.25000000       0.50000000 </v>
    <v>      -0.25000000       0.50000000       0.50000000 </v>
    <v>       0.50000000       0.25000000       0.50000000 </v>
   </varray>
   <varray name="weights" >
    <v>       0.01562500 </v>
    <v>       0.03125000 </v>
    <v>       0.03125000 </v>
    <v>       0.03125000 </v>
    <v>       0.01562500 </v>
    <v>       0.01562500 </v>
    <v>       0.01562500 </v>
    <v>       0.03125000 </v>
    <v>       0.03125000 </v>
    <v>       0.03125000 </v>
    <v>       0.03125000 </v>
    <v>       0.03125000 </v>
    <v>       0.03125000 </v>
    <v>       0.03125000 </v>
    <v>       0.03125000 </v>
    <v>       0.03125000 </v>
    <v>       0.03125000 </v>
    <v>       0.03125000 </v>
    <v>       0.03125000 </v>
    <v>       0.03125000 </v>
    <v>       0.03125000 </v>
    <v>       0.03125000 </v>
    <v>       0.03125000 </v>
    <v>       0.03125000 </v>
    <v>       0.03125000 </v>
    <v>       0.03125000 </v>
    <v>       0.01562500 </v>
    <v>       0.03125000 </v>
    <v>       0.03125000 </v>
    <v>       0.03125000 </v>
    <v>       0.01562500 </v>
    <v>       0.01562500 </v>
    <v>       0.01562500 </v>
    <v>       0.03125000 </v>
    <v>       0.03125000 </v>
    <v>       0.03125000 </v>
   </varray>
  </kpoints>
  <scstep>
   <time name="total">    2.33    1.82</time>
   <energy>
    <i name="e_fr_energy">     -0.48761078 </i>
    <i name="e_wo_entrp">     -0.48761078 </i>
    <i name="e_0_energy">     -0.48761078 </i>
   </energy>
  </scstep>
  <scstep>
   <time name="total">    2.38    1.87</time>
   <energy>
    <i name="e_fr_energy">     -0.48965488 </i>
    <i name="e_wo_entrp">     -0.48965488 </i>
    <i name="e_0_energy">     -0.48965488 </i>
   </energy>
  </scstep>
  <scstep>
   <time name="total">    2.40    1.88</time>
   <energy>
    <i name="e_fr_energy">     -0.47439502 </i>
    <i name="e_wo_entrp">     -0.47439502 </i>
    <i name="e_0_energy">     -0.47439502 </i>
   </energy>
  </scstep>
  <scstep>
   <time name="total">    2.41    1.90</time>
   <energy>
    <i name="e_fr_energy">     -0.48763599 </i>
    <i name="e_wo_entrp">     -0.48763599 </i>
    <i name="e_0_energy">     -0.48763599 </i>
   </energy>
  </scstep>
  <scstep>
   <time name="total">    2.41    1.90</time>
   <energy>
    <i name="e_fr_energy">     -0.50387879 </i>
    <i name="e_wo_entrp">     -0.50387879 </i>
    <i name="e_0_energy">     -0.50387879 </i>
   </energy>
  </scstep>
  <scstep>
   <time name="total">    2.37    1.85</time>
   <energy>
    <i name="e_fr_energy">     -0.50671668 </i>
    <i name="e_wo_entrp">     -0.50671668 </i>
    <i name="e_0_energy">     -0.50671668 </i>
   </energy>
  </scstep>
  <scstep>
   <time name="total">    2.42    1.90</time>
   <energy>
    <i name="e_fr_energy">     -0.50696125 </i>
    <i name="e_wo_entrp">     -0.50696125 </i>
    <i name="e_0_energy">     -0.50696125 </i>
   </energy>
  </scstep>
  <scstep>
   <time name="total">    2.42    1.90</time>
   <energy>
    <i name="e_fr_energy">     -0.50722679 </i>
    <i name="e_wo_entrp">     -0.50722679 </i>
    <i name="e_0_energy">     -0.50722679 </i>
   </energy>
  </scstep>
  <scstep>
   <time name="total">    2.43    1.92</time>
   <energy>
    <i name="e_fr_energy">     -0.50724933 </i>
    <i name="e_wo_entrp">     -0.50724933 </i>
    <i name="e_0_energy">     -0.50724933 </i>
   </energy>
  </scstep>
  <scstep>
   <time name="total">    2.46    1.94</time>
   <energy>
    <i name="e_fr_energy">     -0.50725059 </i>
    <i name="e_wo_entrp">     -0.50725059 </i>
    <i name="e_0_energy">     -0.50725059 </i>
   </energy>
  </scstep>
  <scstep>
   <time name="total">    2.48    1.96</time>
   <energy>
    <i name="e_fr_energy">     -0.50724966 </i>
    <i name="e_wo_entrp">     -0.50724966 </i>
    <i name="e_0_energy">     -0.50724966 </i>
   </energy>
  </scstep>
  <scstep>
   <time name="total">    2.40    1.88</time>
   <energy>
    <i name="e_fr_energy">     -0.50724995 </i>
    <i name="e_wo_entrp">     -0.50724995 </i>
    <i name="e_0_energy">     -0.50724995 </i>
   </energy>
  </scstep>
  <scstep>
   <time name="total">    2.43    1.92</time>
   <energy>
    <i name="e_fr_energy">     -0.50724995 </i>
    <i name="e_wo_entrp">     -0.50724995 </i>
    <i name="e_0_energy">     -0.50724995 </i>
   </energy>
  </scstep>
  <scstep>
   <time name="total">    2.41    1.90</time>
   <energy>
    <i name="e_fr_energy">     -0.50724996 </i>
    <i name="e_wo_entrp">     -0.50724996 </i>
    <i name="e_0_energy">     -0.50724996 </i>
   </energy>
  </scstep>
  <kpoints>
   <generation param="Gamma">
    <v type="int" name="divisions">       4        4        4 </v>
    <v name="usershift">      0.00000000       0.00000000       0.00000000 </v>
    <v name="genvec1">      0.25000000       0.00000000       0.00000000 </v>
    <v name="genvec2">      0.00000000       0.25000000       0.00000000 </v>
    <v name="genvec3">      0.00000000       0.00000000       0.25000000 </v>
    <v name="shift">      0.00000000       0.00000000       0.00000000 </v>
   </generation>
   <varray name="kpointlist" >
    <v>       0.00000000       0.00000000       0.00000000 </v>
    <v>       0.25000000       0.00000000       0.00000000 </v>
    <v>       0.00000000       0.25000000       0.00000000 </v>
    <v>      -0.25000000       0.25000000       0.00000000 </v>
    <v>       0.50000000       0.00000000       0.00000000 </v>
    <v>       0.00000000       0.50000000       0.00000000 </v>
    <v>       0.50000000       0.50000000       0.00000000 </v>
    <v>       0.25000000       0.25000000       0.00000000 </v>
    <v>      -0.25000000       0.50000000       0.00000000 </v>
    <v>       0.50000000       0.25000000       0.00000000 </v>
    <v>       0.00000000       0.00000000       0.25000000 </v>
    <v>       0.25000000       0.00000000       0.25000000 </v>
    <v>       0.00000000       0.25000000       0.25000000 </v>
    <v>      -0.25000000       0.25000000       0.25000000 </v>
    <v>      -0.25000000       0.00000000       0.25000000 </v>
    <v>       0.00000000      -0.25000000       0.25000000 </v>
    <v>       0.25000000      -0.25000000       0.25000000 </v>
    <v>       0.50000000       0.00000000       0.25000000 </v>
    <v>       0.00000000       0.50000000       0.25000000 </v>
    <v>       0.50000000       0.50000000       0.25000000 </v>
    <v>       0.25000000       0.25000000       0.25000000 </v>
    <v>      -0.25000000       0.50000000       0.25000000 </v>
    <v>       0.50000000       0.25000000       0.25000000 </v>
    <v>      -0.25000000      -0.25000000       0.25000000 </v>
    <v>       0.25000000       0.50000000       0.25000000 </v>
    <v>       0.50000000      -0.25000000       0.25000000 </v>
    <v>       0.00000000       0.00000000       0.50000000 </v>
    <v>       0.25000000       0.00000000       0.50000000 </v>
    <v>       0.00000000       0.25000000       0.50000000 </v>
    <v>      -0.25000000       0.25000000       0.50000000 </v>
    <v>       0.50000000       0.00000000       0.50000000 </v>
    <v>       0.00000000       0.50000000       0.50000000 </v>
    <v>       0.50000000       0.50000000       0.50000000 </v>
    <v>       0.25000000       0.25000000       0.50000000 </v>
    <v>      -0.25000000       0.50000000       0.50000000 </v>
    <v>       0.50000000       0.25000000       0.50000000 </v>
   </varray>
   <varray name="weights" >
    <v>       0.01562500 </v>
    <v>       0.03125000 </v>
    <v>       0.03125000 </v>
    <v>       0.03125000 </v>
    <v>       0.01562500 </v>
    <v>       0.01562500 </v>
    <v>       0.01562500 </v>
    <v>       0.03125000 </v>
    <v>       0.03125000 </v>
    <v>       0.03125000 </v>
    <v>       0.03125000 </v>
    <v>       0.03125000 </v>
    <v>       0.03125000 </v>
    <v>       0.03125000 </v>
    <v>       0.03125000 </v>
    <v>       0.03125000 </v>
    <v>       0.03125000 </v>
    <v>       0.03125000 </v>
    <v>       0.03125000 </v>
    <v>       0.03125000 </v>
    <v>       0.03125000 </v>
    <v>       0.03125000 </v>
    <v>       0.03125000 </v>
    <v>       0.03125000 </v>
    <v>       0.03125000 </v>
    <v>       0.03125000 </v>
    <v>       0.01562500 </v>
    <v>       0.03125000 </v>
    <v>       0.03125000 </v>
    <v>       0.03125000 </v>
    <v>       0.01562500 </v>
    <v>       0.01562500 </v>
    <v>       0.01562500 </v>
    <v>       0.03125000 </v>
    <v>       0.03125000 </v>
    <v>       0.03125000 </v>
   </varray>
  </kpoints>
  <varray name="dielectric_dft" >
   <v>       2.48082206      -0.00009353      -0.00018764 </v>
   <v>      -0.00009012       2.48081855      -0.00000196 </v>
   <v>      -0.00018857      -0.00000352       2.51334108 </v>
  </varray>
  <varray name="epsilon" >
   <v>       2.48082206      -0.00009353      -0.00018764 </v>
   <v>      -0.00009012       2.48081855      -0.00000196 </v>
   <v>      -0.00018857      -0.00000352       2.51334108 </v>
  </varray>
  <kpoints>
   <generation param="Gamma">
    <v type="int" name="divisions">       4        4        4 </v>
    <v name="usershift">      0.00000000       0.00000000       0.00000000 </v>
    <v name="genvec1">      0.25000000       0.00000000       0.00000000 </v>
    <v name="genvec2">      0.00000000       0.25000000       0.00000000 </v>
    <v name="genvec3">      0.00000000       0.00000000       0.25000000 </v>
    <v name="shift">      0.00000000       0.00000000       0.00000000 </v>
   </generation>
   <varray name="kpointlist" >
    <v>       0.00000000       0.00000000       0.00000000 </v>
    <v>       0.25000000       0.00000000       0.00000000 </v>
    <v>       0.00000000       0.25000000       0.00000000 </v>
    <v>      -0.25000000       0.25000000       0.00000000 </v>
    <v>       0.50000000       0.00000000       0.00000000 </v>
    <v>       0.00000000       0.50000000       0.00000000 </v>
    <v>       0.50000000       0.50000000       0.00000000 </v>
    <v>       0.25000000       0.25000000       0.00000000 </v>
    <v>      -0.25000000       0.50000000       0.00000000 </v>
    <v>       0.50000000       0.25000000       0.00000000 </v>
    <v>       0.00000000       0.00000000       0.25000000 </v>
    <v>       0.25000000       0.00000000       0.25000000 </v>
    <v>       0.00000000       0.25000000       0.25000000 </v>
    <v>      -0.25000000       0.25000000       0.25000000 </v>
    <v>      -0.25000000       0.00000000       0.25000000 </v>
    <v>       0.00000000      -0.25000000       0.25000000 </v>
    <v>       0.25000000      -0.25000000       0.25000000 </v>
    <v>       0.50000000       0.00000000       0.25000000 </v>
    <v>       0.00000000       0.50000000       0.25000000 </v>
    <v>       0.50000000       0.50000000       0.25000000 </v>
    <v>       0.25000000       0.25000000       0.25000000 </v>
    <v>      -0.25000000       0.50000000       0.25000000 </v>
    <v>       0.50000000       0.25000000       0.25000000 </v>
    <v>      -0.25000000      -0.25000000       0.25000000 </v>
    <v>       0.25000000       0.50000000       0.25000000 </v>
    <v>       0.50000000      -0.25000000       0.25000000 </v>
    <v>       0.00000000       0.00000000       0.50000000 </v>
    <v>       0.25000000       0.00000000       0.50000000 </v>
    <v>       0.00000000       0.25000000       0.50000000 </v>
    <v>      -0.25000000       0.25000000       0.50000000 </v>
    <v>       0.50000000       0.00000000       0.50000000 </v>
    <v>       0.00000000       0.50000000       0.50000000 </v>
    <v>       0.50000000       0.50000000       0.50000000 </v>
    <v>       0.25000000       0.25000000       0.50000000 </v>
    <v>      -0.25000000       0.50000000       0.50000000 </v>
    <v>       0.50000000       0.25000000       0.50000000 </v>
   </varray>
   <varray name="weights" >
    <v>       0.01562500 </v>
    <v>       0.03125000 </v>
    <v>       0.03125000 </v>
    <v>       0.03125000 </v>
    <v>       0.01562500 </v>
    <v>       0.01562500 </v>
    <v>       0.01562500 </v>
    <v>       0.03125000 </v>
    <v>       0.03125000 </v>
    <v>       0.03125000 </v>
    <v>       0.03125000 </v>
    <v>       0.03125000 </v>
    <v>       0.03125000 </v>
    <v>       0.03125000 </v>
    <v>       0.03125000 </v>
    <v>       0.03125000 </v>
    <v>       0.03125000 </v>
    <v>       0.03125000 </v>
    <v>       0.03125000 </v>
    <v>       0.03125000 </v>
    <v>       0.03125000 </v>
    <v>       0.03125000 </v>
    <v>       0.03125000 </v>
    <v>       0.03125000 </v>
    <v>       0.03125000 </v>
    <v>       0.03125000 </v>
    <v>       0.01562500 </v>
    <v>       0.03125000 </v>
    <v>       0.03125000 </v>
    <v>       0.03125000 </v>
    <v>       0.01562500 </v>
    <v>       0.01562500 </v>
    <v>       0.01562500 </v>
    <v>       0.03125000 </v>
    <v>       0.03125000 </v>
    <v>       0.03125000 </v>
   </varray>
  </kpoints>
  <array name="born_charges" >
   <dimension dim="1">ion</dimension>
   <set>
    <v>       2.98056601       0.00016118      -0.00048216 </v>
    <v>       0.00024059       3.62049408      -0.32134264 </v>
    <v>       0.00065107       0.27802224       3.42534890 </v>
   </set>
   <set>
    <v>       3.46061209       0.27711701       0.27841409 </v>
    <v>       0.27730955       3.14063673       0.16095326 </v>
    <v>      -0.24016959      -0.13905414       3.42508660 </v>
   </set>
   <set>
    <v>       3.46045244      -0.27710715      -0.27829208 </v>
    <v>      -0.27691049       3.14041995       0.16036235 </v>
    <v>       0.24139070      -0.13899224       3.42561260 </v>
   </set>
   <set>
    <v>      -1.31118588      -0.49291078      -0.30967637 </v>
    <v>      -0.43667599      -1.98923766      -0.67851510 </v>
    <v>      -0.24432431      -0.72163587      -1.71251269 </v>
   </set>
   <set>
    <v>      -2.22253867      -0.08988765       0.74303135 </v>
    <v>      -0.03279545      -1.07811628       0.07070526 </v>
    <v>       0.74672063       0.14982394      -1.71272556 </v>
   </set>
   <set>
    <v>      -1.41730345       0.49688490      -0.43317751 </v>
    <v>       0.55497380      -1.88347180       0.60850456 </v>
    <v>      -0.50330245       0.57052727      -1.71275496 </v>
   </set>
   <set>
    <v>      -1.31111425       0.49371972       0.31052347 </v>
    <v>       0.43554931      -1.98947704      -0.67947051 </v>
    <v>       0.24251737      -0.72127056      -1.71284052 </v>
   </set>
   <set>
    <v>      -2.22201072       0.09000590      -0.74314772 </v>
    <v>       0.03264937      -1.07834384       0.07098818 </v>
    <v>      -0.74633150       0.14999628      -1.71264394 </v>
   </set>
   <set>
    <v>      -1.41747757      -0.49798312       0.43280694 </v>
    <v>      -0.55434069      -1.88290413       0.60781464 </v>
    <v>       0.50284809       0.57258309      -1.71257044 </v>
   </set>
  </array>
  <time name="totalsc">  436.43  249.67</time>
  <eigenvalues>
   <array>
    <dimension dim="1">band</dimension>
    <dimension dim="2">kpoint</dimension>
    <dimension dim="3">spin</dimension>
    <field>eigene</field>
    <field>occ</field>
    <set>
     <set comment="spin 1">
      <set comment="kpoint 1">
       <r>  -18.1720    1.0000 </r>
       <r>  -16.6206    1.0000 </r>
       <r>  -16.6196    1.0000 </r>
       <r>  -15.9516    1.0000 </r>
       <r>  -15.9426    1.0000 </r>
       <r>  -15.9420    1.0000 </r>
       <r>   -6.8793    1.0000 </r>
       <r>   -6.8786    1.0000 </r>
       <r>   -4.1465    1.0000 </r>
       <r>   -4.0640    1.0000 </r>
       <r>   -3.9126    1.0000 </r>
       <r>   -3.9097    1.0000 </r>
       <r>   -1.6864    1.0000 </r>
       <r>   -1.6849    1.0000 </r>
       <r>   -1.3748    1.0000 </r>
[...]
       <r>    1.1199    1.0000 </r>
       <r>   10.2284    0.0000 </r>
       <r>   10.7275    0.0000 </r>
       <r>   11.0160    0.0000 </r>
       <r>   11.2014    0.0000 </r>
       <r>   11.5396    0.0000 </r>
      </set>
      <set comment="kpoint 34">
       <r>  -17.5753    1.0000 </r>
       <r>  -17.1861    1.0000 </r>
       <r>  -16.6522    1.0000 </r>
       <r>  -16.0617    1.0000 </r>
       <r>  -15.9928    1.0000 </r>
       <r>  -15.9925    1.0000 </r>
       <r>   -6.8569    1.0000 </r>
       <r>   -5.8707    1.0000 </r>
       <r>   -5.1559    1.0000 </r>
       <r>   -3.8971    1.0000 </r>
       <r>   -3.7949    1.0000 </r>
       <r>   -3.6160    1.0000 </r>
       <r>   -1.9743    1.0000 </r>
       <r>   -1.7471    1.0000 </r>
       <r>   -1.2644    1.0000 </r>
       <r>   -0.9006    1.0000 </r>
       <r>   -0.6226    1.0000 </r>
       <r>   -0.4219    1.0000 </r>
       <r>    0.1507    1.0000 </r>
       <r>    0.2554    1.0000 </r>
       <r>    0.3286    1.0000 </r>
       <r>    0.5717    1.0000 </r>
       <r>    0.7163    1.0000 </r>
       <r>    0.9240    1.0000 </r>
       <r>   10.1756    0.0000 </r>
       <r>   10.6499    0.0000 </r>
       <r>   10.9619    0.0000 </r>
       <r>   11.3052    0.0000 </r>
       <r>   11.7247    0.0000 </r>
      </set>
      <set comment="kpoint 35">
       <r>  -17.5752    1.0000 </r>
       <r>  -17.1858    1.0000 </r>
       <r>  -16.6525    1.0000 </r>
       <r>  -16.0618    1.0000 </r>
       <r>  -15.9931    1.0000 </r>
       <r>  -15.9926    1.0000 </r>
       <r>   -6.8563    1.0000 </r>
       <r>   -5.8694    1.0000 </r>
       <r>   -5.1564    1.0000 </r>
       <r>   -3.8985    1.0000 </r>
       <r>   -3.7952    1.0000 </r>
       <r>   -3.6150    1.0000 </r>
       <r>   -1.9736    1.0000 </r>
       <r>   -1.7467    1.0000 </r>
       <r>   -1.2650    1.0000 </r>
       <r>   -0.9001    1.0000 </r>
       <r>   -0.6222    1.0000 </r>
       <r>   -0.4226    1.0000 </r>
       <r>    0.1480    1.0000 </r>
       <r>    0.2561    1.0000 </r>
       <r>    0.3282    1.0000 </r>
       <r>    0.5708    1.0000 </r>
       <r>    0.7166    1.0000 </r>
       <r>    0.9242    1.0000 </r>
       <r>   10.1785    0.0000 </r>
       <r>   10.6522    0.0000 </r>
       <r>   10.9647    0.0000 </r>
       <r>   11.3045    0.0000 </r>
       <r>   11.7210    0.0000 </r>
      </set>
      <set comment="kpoint 36">
       <r>  -17.5752    1.0000 </r>
       <r>  -17.1860    1.0000 </r>
       <r>  -16.6523    1.0000 </r>
       <r>  -16.0617    1.0000 </r>
       <r>  -15.9931    1.0000 </r>
       <r>  -15.9924    1.0000 </r>
       <r>   -6.8566    1.0000 </r>
       <r>   -5.8701    1.0000 </r>
       <r>   -5.1562    1.0000 </r>
       <r>   -3.8978    1.0000 </r>
       <r>   -3.7950    1.0000 </r>
       <r>   -3.6155    1.0000 </r>
       <r>   -1.9739    1.0000 </r>
       <r>   -1.7469    1.0000 </r>
       <r>   -1.2647    1.0000 </r>
       <r>   -0.9003    1.0000 </r>
       <r>   -0.6224    1.0000 </r>
       <r>   -0.4222    1.0000 </r>
       <r>    0.1493    1.0000 </r>
       <r>    0.2557    1.0000 </r>
       <r>    0.3284    1.0000 </r>
       <r>    0.5712    1.0000 </r>
       <r>    0.7164    1.0000 </r>
       <r>    0.9241    1.0000 </r>
       <r>   10.1771    0.0000 </r>
       <r>   10.6510    0.0000 </r>
       <r>   10.9633    0.0000 </r>
       <r>   11.3049    0.0000 </r>
       <r>   11.7232    0.0000 </r>
      </set>
     </set>
    </set>
   </array>
  </eigenvalues>
  <separator name="orbital magnetization" >
   <v name="MAGDIPOLOUT">      0.00000000      0.00000000      0.00000000</v>
  </separator>
  <dos>
   <i name="efermi">      1.78609799 </i>
   <total>
    <array>
     <dimension dim="1">gridpoints</dimension>
     <dimension dim="2">spin</dimension>
     <field>energy</field>
     <field>total</field>
     <field>integrated</field>
     <set>
      <set comment="spin 1">
       <r>   -19.6806     0.0000     0.0000 </r>
       <r>   -19.5700     0.0000     0.0000 </r>
       <r>   -19.4593     0.0000     0.0000 </r>
       <r>   -19.3487     0.0000     0.0000 </r>
       <r>   -19.2381     0.0000     0.0000 </r>
       <r>   -19.1274     0.0000     0.0000 </r>
       <r>   -19.0168     0.0000     0.0000 </r>
       <r>   -18.9062     0.0000     0.0000 </r>
       <r>   -18.7955     0.0000     0.0000 </r>
       <r>   -18.6849     0.0000     0.0000 </r>
       <r>   -18.5743     0.0000     0.0000 </r>
       <r>   -18.4636     0.0000     0.0000 </r>
       <r>   -18.3530     0.0015     0.0002 </r>
       <r>   -18.2424     0.0455     0.0052 </r>
       <r>   -18.1317     0.2561     0.0335 </r>
       <r>   -18.0211     0.9593     0.1397 </r>
       <r>   -17.9105     2.1807     0.3809 </r>
       <r>   -17.7998     2.2488     0.6297 </r>
       <r>   -17.6892     3.1571     0.9790 </r>
       <r>   -17.5785     6.7083     1.7212 </r>
       <r>   -17.4679     3.7401     2.1350 </r>
       <r>   -17.3573     0.7669     2.2198 </r>
       <r>   -17.2466     1.6699     2.4046 </r>
       <r>   -17.1360     7.3363     3.2162 </r>
       <r>   -17.0254     4.6962     3.7358 </r>
       <r>   -16.9147     0.5600     3.7978 </r>
       <r>   -16.8041     0.9829     3.9065 </r>
       <r>   -16.6935     2.7497     4.2107 </r>
       <r>   -16.5828     6.4615     4.9256 </r>
       <r>   -16.4722     3.7420     5.3396 </r>
       <r>   -16.3616     1.9954     5.5603 </r>
       <r>   -16.2509     2.2032     5.8041 </r>
       <r>   -16.1403     3.0214     6.1384 </r>
       <r>   -16.0297    16.1339     7.9234 </r>
       <r>   -15.9190    27.1131    10.9230 </r>
       <r>   -15.8084     9.2020    11.9411 </r>
       <r>   -15.6977     0.5282    11.9995 </r>
       <r>   -15.5871     0.0041    12.0000 </r>
       <r>   -15.4765     0.0000    12.0000 </r>
       <r>   -15.3658     0.0000    12.0000 </r>
       <r>   -15.2552     0.0000    12.0000 </r>
       <r>   -15.1446     0.0000    12.0000 </r>
       <r>   -15.0339     0.0000    12.0000 </r>
       <r>   -14.9233     0.0000    12.0000 </r>
       <r>   -14.8127     0.0000    12.0000 </r>
       <r>   -14.7020     0.0000    12.0000 </r>
       <r>   -14.5914     0.0000    12.0000 </r>
       <r>   -14.4808     0.0000    12.0000 </r>
       <r>   -14.3701     0.0000    12.0000 </r>
       <r>   -14.2595     0.0000    12.0000 </r>
       <r>   -14.1488     0.0000    12.0000 </r>
       <r>   -14.0382     0.0000    12.0000 </r>
       <r>   -13.9276     0.0000    12.0000 </r>
       <r>   -13.8169     0.0000    12.0000 </r>
       <r>   -13.7063     0.0000    12.0000 </r>
       <r>   -13.5957     0.0000    12.0000 </r>
       <r>   -13.4850     0.0000    12.0000 </r>
       <r>   -13.3744     0.0000    12.0000 </r>
       <r>   -13.2638     0.0000    12.0000 </r>
       <r>   -13.1531     0.0000    12.0000 </r>
       <r>   -13.0425     0.0000    12.0000 </r>
       <r>   -12.9319     0.0000    12.0000 </r>
       <r>   -12.8212     0.0000    12.0000 </r>
       <r>   -12.7106     0.0000    12.0000 </r>
       <r>   -12.6000     0.0000    12.0000 </r>
       <r>   -12.4893     0.0000    12.0000 </r>
       <r>   -12.3787     0.0000    12.0000 </r>
       <r>   -12.2680     0.0000    12.0000 </r>
       <r>   -12.1574     0.0000    12.0000 </r>
       <r>   -12.0468     0.0000    12.0000 </r>
       <r>   -11.9361     0.0000    12.0000 </r>
       <r>   -11.8255     0.0000    12.0000 </r>
       <r>   -11.7149     0.0000    12.0000 </r>
       <r>   -11.6042     0.0000    12.0000 </r>
       <r>   -11.4936     0.0000    12.0000 </r>
       <r>   -11.3830     0.0000    12.0000 </r>
       <r>   -11.2723     0.0000    12.0000 </r>
       <r>   -11.1617     0.0000    12.0000 </r>
       <r>   -11.0511     0.0000    12.0000 </r>
       <r>   -10.9404     0.0000    12.0000 </r>
       <r>   -10.8298     0.0000    12.0000 </r>
       <r>   -10.7192     0.0000    12.0000 </r>
       <r>   -10.6085     0.0000    12.0000 </r>
       <r>   -10.4979     0.0000    12.0000 </r>
       <r>   -10.3872     0.0000    12.0000 </r>
       <r>   -10.2766     0.0000    12.0000 </r>
       <r>   -10.1660     0.0000    12.0000 </r>
       <r>   -10.0553     0.0000    12.0000 </r>
       <r>    -9.9447     0.0000    12.0000 </r>
       <r>    -9.8341     0.0000    12.0000 </r>
       <r>    -9.7234     0.0000    12.0000 </r>
       <r>    -9.6128     0.0000    12.0000 </r>
       <r>    -9.5022     0.0000    12.0000 </r>
       <r>    -9.3915     0.0000    12.0000 </r>
       <r>    -9.2809     0.0000    12.0000 </r>
       <r>    -9.1703     0.0000    12.0000 </r>
       <r>    -9.0596     0.0000    12.0000 </r>
       <r>    -8.9490     0.0000    12.0000 </r>
       <r>    -8.8384     0.0000    12.0000 </r>
       <r>    -8.7277     0.0000    12.0000 </r>
       <r>    -8.6171     0.0000    12.0000 </r>
       <r>    -8.5064     0.0000    12.0000 </r>
       <r>    -8.3958     0.0000    12.0000 </r>
       <r>    -8.2852     0.0000    12.0000 </r>
       <r>    -8.1745     0.0001    12.0000 </r>
       <r>    -8.0639     0.0120    12.0013 </r>
       <r>    -7.9533     0.1121    12.0138 </r>
       <r>    -7.8426     0.1379    12.0290 </r>
       <r>    -7.7320     0.0949    12.0395 </r>
       <r>    -7.6214     0.4210    12.0861 </r>
       <r>    -7.5107     0.9793    12.1944 </r>
       <r>    -7.4001     1.2349    12.3311 </r>
       <r>    -7.2895     1.9638    12.5483 </r>
       <r>    -7.1788     1.0170    12.6608 </r>
       <r>    -7.0682     1.4132    12.8172 </r>
       <r>    -6.9576     4.6495    13.3316 </r>
       <r>    -6.8469     4.7232    13.8541 </r>
       <r>    -6.7363     1.4887    14.0188 </r>
       <r>    -6.6256     0.1953    14.0405 </r>
       <r>    -6.5150     0.7086    14.1188 </r>
       <r>    -6.4044     0.7858    14.2058 </r>
       <r>    -6.2937     0.1154    14.2186 </r>
       <r>    -6.1831     0.0267    14.2215 </r>
       <r>    -6.0725     0.5392    14.2812 </r>
       <r>    -5.9618     3.4706    14.6651 </r>
       <r>    -5.8512     6.9573    15.4349 </r>
       <r>    -5.7406     2.9335    15.7594 </r>
       <r>    -5.6299     0.1958    15.7811 </r>
       <r>    -5.5193     0.0182    15.7831 </r>
       <r>    -5.4087     0.3580    15.8227 </r>
       <r>    -5.2980     0.9971    15.9330 </r>
       <r>    -5.1874     0.9297    16.0359 </r>
       <r>    -5.0768     2.2149    16.2809 </r>
       <r>    -4.9661     3.9004    16.7124 </r>
       <r>    -4.8555     2.9645    17.0404 </r>
       <r>    -4.7448     1.8642    17.2467 </r>
       <r>    -4.6342     1.8118    17.4471 </r>
       <r>    -4.5236     1.9832    17.6665 </r>
       <r>    -4.4129     0.6135    17.7344 </r>
       <r>    -4.3023     0.7580    17.8183 </r>
       <r>    -4.1917     3.1309    18.1647 </r>
       <r>    -4.0810     8.9210    19.1516 </r>
       <r>    -3.9704     9.6460    20.2188 </r>
       <r>    -3.8598     6.6473    20.9543 </r>
       <r>    -3.7491     6.7649    21.7027 </r>
       <r>    -3.6385     5.6560    22.3285 </r>
       <r>    -3.5279     5.6950    22.9585 </r>
       <r>    -3.4172     5.0719    23.5197 </r>
       <r>    -3.3066     2.6459    23.8124 </r>
       <r>    -3.1960     1.4395    23.9717 </r>
       <r>    -3.0853     0.2506    23.9994 </r>
       <r>    -2.9747     0.0056    24.0000 </r>
       <r>    -2.8640     0.0000    24.0000 </r>
       <r>    -2.7534     0.0000    24.0000 </r>
       <r>    -2.6428     0.0000    24.0000 </r>
       <r>    -2.5321     0.0000    24.0000 </r>
       <r>    -2.4215     0.0000    24.0000 </r>
       <r>    -2.3109     0.0000    24.0000 </r>
       <r>    -2.2002     0.0016    24.0002 </r>
       <r>    -2.0896     0.1695    24.0189 </r>
       <r>    -1.9790     2.6831    24.3158 </r>
       <r>    -1.8683     7.9898    25.1997 </r>
       <r>    -1.7577     8.1171    26.0978 </r>
       <r>    -1.6471     6.8044    26.8506 </r>
       <r>    -1.5364     5.3322    27.4405 </r>
       <r>    -1.4258     6.4049    28.1491 </r>
       <r>    -1.3151     8.4868    29.0881 </r>
       <r>    -1.2045     5.9132    29.7423 </r>
       <r>    -1.0939     3.8787    30.1714 </r>
       <r>    -0.9832     4.8858    30.7119 </r>
       <r>    -0.8726     8.4095    31.6423 </r>
       <r>    -0.7620     6.9177    32.4077 </r>
       <r>    -0.6513     7.3893    33.2252 </r>
       <r>    -0.5407     6.2996    33.9221 </r>
       <r>    -0.4301     6.2747    34.6163 </r>
       <r>    -0.3194     5.9456    35.2741 </r>
       <r>    -0.2088     8.0980    36.1701 </r>
       <r>    -0.0982     9.8288    37.2575 </r>
       <r>     0.0125     8.1630    38.1606 </r>
       <r>     0.1231     8.9519    39.1510 </r>
       <r>     0.2337     9.5031    40.2024 </r>
       <r>     0.3444    10.7039    41.3866 </r>
       <r>     0.4550     8.6912    42.3481 </r>
       <r>     0.5657     5.7888    42.9886 </r>
       <r>     0.6763     6.2777    43.6831 </r>
       <r>     0.7869     5.2753    44.2668 </r>
       <r>     0.8976     6.6700    45.0047 </r>
       <r>     1.0082     6.7027    45.7463 </r>
       <r>     1.1188     7.8578    46.6156 </r>
       <r>     1.2295     8.2660    47.5301 </r>
       <r>     1.3401     3.7096    47.9405 </r>
       <r>     1.4507     0.5250    47.9986 </r>
       <r>     1.5614     0.0125    48.0000 </r>
       <r>     1.6720     0.0000    48.0000 </r>
       <r>     1.7826     0.0000    48.0000 </r>
       <r>     1.8933     0.0000    48.0000 </r>
       <r>     2.0039     0.0000    48.0000 </r>
       <r>     2.1145     0.0000    48.0000 </r>
       <r>     2.2252     0.0000    48.0000 </r>
       <r>     2.3358     0.0000    48.0000 </r>
       <r>     2.4465     0.0000    48.0000 </r>
       <r>     2.5571     0.0000    48.0000 </r>
       <r>     2.6677     0.0000    48.0000 </r>
       <r>     2.7784     0.0000    48.0000 </r>
       <r>     2.8890     0.0000    48.0000 </r>
       <r>     2.9996     0.0000    48.0000 </r>
       <r>     3.1103     0.0000    48.0000 </r>
       <r>     3.2209     0.0000    48.0000 </r>
       <r>     3.3315     0.0000    48.0000 </r>
       <r>     3.4422     0.0000    48.0000 </r>
       <r>     3.5528     0.0000    48.0000 </r>
       <r>     3.6634     0.0000    48.0000 </r>
       <r>     3.7741     0.0000    48.0000 </r>
       <r>     3.8847     0.0000    48.0000 </r>
       <r>     3.9953     0.0000    48.0000 </r>
       <r>     4.1060     0.0000    48.0000 </r>
       <r>     4.2166     0.0000    48.0000 </r>
       <r>     4.3273     0.0000    48.0000 </r>
       <r>     4.4379     0.0000    48.0000 </r>
       <r>     4.5485     0.0000    48.0000 </r>
       <r>     4.6592     0.0000    48.0000 </r>
       <r>     4.7698     0.0000    48.0000 </r>
       <r>     4.8804     0.0000    48.0000 </r>
       <r>     4.9911     0.0000    48.0000 </r>
       <r>     5.1017     0.0000    48.0000 </r>
       <r>     5.2123     0.0000    48.0000 </r>
       <r>     5.3230     0.0000    48.0000 </r>
       <r>     5.4336     0.0000    48.0000 </r>
       <r>     5.5442     0.0000    48.0000 </r>
       <r>     5.6549     0.0000    48.0000 </r>
       <r>     5.7655     0.0000    48.0000 </r>
       <r>     5.8761     0.0000    48.0000 </r>
       <r>     5.9868     0.0000    48.0000 </r>
       <r>     6.0974     0.0000    48.0000 </r>
       <r>     6.2081     0.0000    48.0000 </r>
       <r>     6.3187     0.0000    48.0000 </r>
       <r>     6.4293     0.0000    48.0000 </r>
       <r>     6.5400     0.0000    48.0000 </r>
       <r>     6.6506     0.0000    48.0000 </r>
       <r>     6.7612     0.0000    48.0000 </r>
       <r>     6.8719     0.0000    48.0000 </r>
       <r>     6.9825     0.0000    48.0000 </r>
       <r>     7.0931     0.0002    48.0000 </r>
       <r>     7.2038     0.0126    48.0014 </r>
       <r>     7.3144     0.1140    48.0140 </r>
       <r>     7.4250     0.1343    48.0289 </r>
       <r>     7.5357     0.0209    48.0312 </r>
       <r>     7.6463     0.0004    48.0313 </r>
       <r>     7.7569     0.0032    48.0316 </r>
       <r>     7.8676     0.0911    48.0417 </r>
       <r>     7.9782     0.3156    48.0766 </r>
       <r>     8.0889     0.1815    48.0967 </r>
       <r>     8.1995     0.5119    48.1533 </r>
       <r>     8.3101     0.9229    48.2554 </r>
       <r>     8.4208     0.2271    48.2806 </r>
       <r>     8.5314     0.0592    48.2871 </r>
       <r>     8.6420     0.8335    48.3793 </r>
       <r>     8.7527     1.8550    48.5845 </r>
       <r>     8.8633     0.6195    48.6531 </r>
       <r>     8.9739     0.0284    48.6562 </r>
       <r>     9.0846     0.0006    48.6563 </r>
       <r>     9.1952     0.0304    48.6597 </r>
       <r>     9.3058     0.2566    48.6881 </r>
       <r>     9.4165     0.5801    48.7522 </r>
       <r>     9.5271     1.0790    48.8716 </r>
       <r>     9.6378     1.4663    49.0338 </r>
       <r>     9.7484     3.0856    49.3752 </r>
       <r>     9.8590     2.9602    49.7027 </r>
       <r>     9.9697     1.7297    49.8941 </r>
       <r>    10.0803     0.5391    49.9537 </r>
       <r>    10.1909     1.0951    50.0749 </r>
       <r>    10.3016     1.3682    50.2263 </r>
       <r>    10.4122     2.0848    50.4569 </r>
       <r>    10.5228     3.1242    50.8026 </r>
       <r>    10.6335     5.1432    51.3716 </r>
       <r>    10.7441     9.0654    52.3745 </r>
       <r>    10.8547     6.1355    53.0533 </r>
       <r>    10.9654     6.5879    53.7822 </r>
       <r>    11.0760     7.2991    54.5897 </r>
       <r>    11.1866     2.9824    54.9197 </r>
       <r>    11.2973     3.7043    55.3295 </r>
       <r>    11.4079     5.6802    55.9580 </r>
       <r>    11.5186     6.3243    56.6576 </r>
       <r>    11.6292     5.3059    57.2447 </r>
       <r>    11.7398     3.3503    57.6153 </r>
       <r>    11.8505     2.1379    57.8519 </r>
       <r>    11.9611     0.7222    57.9318 </r>
       <r>    12.0717     0.4888    57.9858 </r>
       <r>    12.1824     0.1241    57.9996 </r>
       <r>    12.2930     0.0040    58.0000 </r>
       <r>    12.4036     0.0000    58.0000 </r>
       <r>    12.5143     0.0000    58.0000 </r>
       <r>    12.6249     0.0000    58.0000 </r>
       <r>    12.7355     0.0000    58.0000 </r>
       <r>    12.8462     0.0000    58.0000 </r>
       <r>    12.9568     0.0000    58.0000 </r>
       <r>    13.0674     0.0000    58.0000 </r>
       <r>    13.1781     0.0000    58.0000 </r>
       <r>    13.2887     0.0000    58.0000 </r>
       <r>    13.3994     0.0000    58.0000 </r>
       <r>    13.5100     0.0000    58.0000 </r>
      </set>
     </set>
    </array>
   </total>
  </dos>
 </calculation>
 <structure name="finalpos" >
  <crystal>
   <varray name="basis" >
    <v>       4.87342988       0.00000000       0.00000000 </v>
    <v>      -2.43671494       4.22051408       0.00000000 </v>
    <v>       0.00000000       0.00000000       5.37418982 </v>
   </varray>
   <i name="volume">    110.53837516 </i>
   <varray name="rec_basis" >
    <v>       0.20519429       0.11846898      -0.00000000 </v>
    <v>       0.00000000       0.23693796       0.00000000 </v>
    <v>       0.00000000      -0.00000000       0.18607456 </v>
   </varray>
  </crystal>
  <varray name="positions" >
   <v>       0.46460755       0.99984919       0.66670403 </v>
   <v>       0.99992460       0.46458094       0.33331465 </v>
   <v>       0.53529045       0.53521504       0.99998132 </v>
   <v>       0.13564747       0.72415776       0.55431263 </v>
   <v>       0.27599668       0.41148324       0.22085925 </v>
   <v>       0.58845688       0.86467043       0.88739444 </v>
   <v>       0.41152101       0.27619274       0.77926841 </v>
   <v>       0.86451083       0.58847253       0.11248171 </v>
   <v>       0.72417857       0.13564617       0.44568356 </v>
  </varray>
 </structure>
</modeling>
