<?xml version="1.0" encoding="ISO-8859-1"?>
<modeling>
 <generator>
  <i name="program" type="string">vasp </i>
  <i name="version" type="string">6.4.1  </i>
  <i name="subversion" type="string">05Apr23 (build Sep  6 2023 20:49:31) complex                          parallel </i>
  <i name="platform" type="string">LinuxNV </i>
  <i name="date" type="string">2023 10 19 </i>
  <i name="time" type="string">14:05:35 </i>
 </generator>
 <incar>
  <i type="string" name="PREC">Accurate</i>
  <i type="string" name="ALGO">Fast</i>
  <i name="EDIFF">      0.00000001</i>
  <i name="ENCUT">    500.00000000</i>
  <i type="int" name="ISMEAR">     0</i>
  <i name="SIGMA">      0.10000000</i>
  <i type="logical" name="LEPSILON"> T  </i>
 </incar>
 <primitive_cell>
  <structure name="primitive_cell" >
   <crystal>
    <varray name="basis" >
     <v>       4.87342988       0.00000000       0.00000000 </v>
     <v>      -2.43671494       4.22051408       0.00000000 </v>
     <v>       0.00000000       0.00000000       5.37418982 </v>
    </varray>
    <i name="volume">    110.53837516 </i>
    <varray name="rec_basis" >
     <v>       0.20519429       0.11846898      -0.00000000 </v>
     <v>       0.00000000       0.23693796       0.00000000 </v>
     <v>       0.00000000      -0.00000000       0.18607456 </v>
    </varray>
   </crystal>
   <varray name="positions" >
    <v>       0.46464935       0.00000000       0.66666667 </v>
    <v>       0.00009013       0.46474482       0.33314122 </v>
    <v>       0.53534531       0.53525518       0.00019211 </v>
    <v>       0.13534784       0.72387756       0.55419261 </v>
    <v>       0.27600296       0.41159783       0.22079520 </v>
    <v>       0.58855203       0.86447909       0.88757851 </v>
    <v>       0.41147028       0.27612245       0.77914073 </v>
    <v>       0.86440513       0.58840217       0.11253813 </v>
    <v>       0.72407294       0.13552090       0.44575482 </v>
   </varray>
  </structure>
  <varray name="primitive_index" >
   <v type="int" >        1 </v>
   <v type="int" >        2 </v>
   <v type="int" >        3 </v>
   <v type="int" >        4 </v>
   <v type="int" >        5 </v>
   <v type="int" >        6 </v>
   <v type="int" >        7 </v>
   <v type="int" >        8 </v>
   <v type="int" >        9 </v>
  </varray>
 </primitive_cell>
 <kpoints>
  <generation param="Gamma">
   <v type="int" name="divisions">       4        4        4 </v>
   <v name="usershift">      0.00000000       0.00000000       0.00000000 </v>
   <v name="genvec1">      0.25000000       0.00000000       0.00000000 </v>
   <v name="genvec2">      0.00000000       0.25000000       0.00000000 </v>
   <v name="genvec3">      0.00000000       0.00000000       0.25000000 </v>
   <v name="shift">      0.00000000       0.00000000       0.00000000 </v>
  </generation>
  <varray name="kpointlist" >
   <v>       0.00000000       0.00000000       0.00000000 </v>
   <v>       0.25000000       0.00000000       0.00000000 </v>
   <v>       0.00000000       0.25000000       0.00000000 </v>
   <v>       0.50000000       0.00000000       0.00000000 </v>
   <v>       0.00000000       0.50000000       0.00000000 </v>
   <v>       0.25000000       0.25000000       0.00000000 </v>
   <v>       0.50000000       0.25000000       0.00000000 </v>
   <v>       0.00000000       0.00000000       0.25000000 </v>
   <v>       0.25000000       0.00000000       0.25000000 </v>
   <v>       0.00000000       0.25000000       0.25000000 </v>
   <v>      -0.25000000       0.00000000       0.25000000 </v>
   <v>       0.00000000      -0.25000000       0.25000000 </v>
   <v>       0.50000000       0.00000000       0.25000000 </v>
   <v>       0.00000000       0.50000000       0.25000000 </v>
   <v>       0.25000000       0.25000000       0.25000000 </v>
   <v>       0.50000000       0.25000000       0.25000000 </v>
   <v>      -0.25000000      -0.25000000       0.25000000 </v>
   <v>       0.00000000       0.00000000       0.50000000 </v>
   <v>       0.25000000       0.00000000       0.50000000 </v>
   <v>       0.00000000       0.25000000       0.50000000 </v>
   <v>       0.50000000       0.00000000       0.50000000 </v>
   <v>       0.00000000       0.50000000       0.50000000 </v>
   <v>       0.25000000       0.25000000       0.50000000 </v>
   <v>       0.50000000       0.25000000       0.50000000 </v>
  </varray>
  <varray name="weights" >
   <v>       0.01562500 </v>
   <v>       0.06250000 </v>
   <v>       0.03125000 </v>
   <v>       0.03125000 </v>
   <v>       0.01562500 </v>
   <v>       0.06250000 </v>
   <v>       0.03125000 </v>
   <v>       0.03125000 </v>
   <v>       0.06250000 </v>
   <v>       0.03125000 </v>
   <v>       0.06250000 </v>
   <v>       0.03125000 </v>
   <v>       0.06250000 </v>
   <v>       0.03125000 </v>
   <v>       0.06250000 </v>
   <v>       0.06250000 </v>
   <v>       0.06250000 </v>
   <v>       0.01562500 </v>
   <v>       0.06250000 </v>
   <v>       0.03125000 </v>
   <v>       0.03125000 </v>
   <v>       0.01562500 </v>
   <v>       0.06250000 </v>
   <v>       0.03125000 </v>
  </varray>
 </kpoints>
 <parameters>
  <separator name="general" >
   <i type="string" name="SYSTEM">unknown system</i>
   <i type="logical" name="LCOMPAT"> F  </i>
  </separator>
  <separator name="electronic" >
   <i type="string" name="PREC">accura</i>
   <i name="ENMAX">    500.00000000</i>
   <i name="ENAUG">    605.39200000</i>
   <i name="EDIFF">      0.00000001</i>
   <i type="int" name="IALGO">    68</i>
   <i type="int" name="IWAVPR">    10</i>
   <i type="int" name="NBANDS">    29</i>
   <i type="int" name="NBANDSLOW">    -1</i>
   <i type="int" name="NBANDSHIGH">    -1</i>
   <i name="NELECT">     48.00000000</i>
   <i type="int" name="TURBO">     0</i>
   <i type="int" name="IRESTART">     0</i>
   <i type="int" name="NREBOOT">     0</i>
   <i type="int" name="NMIN">     0</i>
   <i name="EREF">      0.00000000</i>
   <separator name="electronic smearing" >
    <i type="int" name="ISMEAR">     0</i>
    <i name="SIGMA">      0.10000000</i>
    <i name="KSPACING">      0.50000000</i>
    <i type="logical" name="KGAMMA"> T  </i>
    <i type="logical" name="KBLOWUP"> T  </i>
   </separator>
   <separator name="electronic projectors" >
    <i type="logical" name="LREAL"> F  </i>
    <v name="ROPT">      0.00000000      0.00000000</v>
    <i type="int" name="LMAXPAW">  -100</i>
    <i type="int" name="LMAXMIX">     2</i>
    <i type="logical" name="NLSPLINE"> F  </i>
   </separator>
   <separator name="electronic startup" >
    <i type="int" name="ISTART">     0</i>
    <i type="int" name="ICHARG">     2</i>
    <i type="int" name="INIWAV">     1</i>
   </separator>
   <separator name="electronic spin" >
    <i type="int" name="ISPIN">     1</i>
    <i type="logical" name="LNONCOLLINEAR"> F  </i>
    <v name="MAGMOM">      1.00000000      1.00000000      1.00000000      1.00000000      1.00000000      1.00000000      1.00000000      1.00000000      1.00000000</v>
    <i name="NUPDOWN">     -1.00000000</i>
    <i type="logical" name="LSORBIT"> F  </i>
    <v name="SAXIS">      0.00000000      0.00000000      1.00000000</v>
    <i type="logical" name="LSPIRAL"> F  </i>
    <v name="QSPIRAL">      0.00000000      0.00000000      0.00000000</v>
    <i type="logical" name="LZEROZ"> F  </i>
   </separator>
   <separator name="electronic exchange-correlation" >
    <i type="logical" name="LASPH"> F  </i>
    <i type="logical" name="LMETAGGA"> F  </i>
   </separator>
   <separator name="electronic convergence" >
    <i type="int" name="NELM">    60</i>
    <i type="int" name="NELMDL">    -5</i>
    <i type="int" name="NELMIN">     2</i>
    <i name="ENINI">    500.00000000</i>
    <separator name="electronic convergence detail" >
     <i type="logical" name="LDIAG"> T  </i>
     <i type="logical" name="LSUBROT"> F  </i>
     <i name="WEIMIN">      0.00000000</i>
     <i name="EBREAK">      0.00000000</i>
     <i name="DEPER">      0.30000000</i>
     <i type="int" name="NRMM">     4</i>
     <i name="TIME">      0.40000000</i>
    </separator>
   </separator>
   <separator name="electronic mixer" >
    <i name="AMIX">      0.40000000</i>
    <i name="BMIX">      1.00000000</i>
    <i name="AMIN">      0.10000000</i>
    <i name="AMIX_MAG">      1.60000000</i>
    <i name="BMIX_MAG">      1.00000000</i>
    <separator name="electronic mixer details" >
     <i type="int" name="IMIX">     4</i>
     <i type="logical" name="MIXFIRST"> F  </i>
     <i type="int" name="MAXMIX">   -45</i>
     <i name="WC">    100.00000000</i>
     <i type="int" name="INIMIX">     1</i>
     <i type="int" name="MIXPRE">     1</i>
     <i type="int" name="MREMOVE">     5</i>
    </separator>
   </separator>
   <separator name="electronic dipolcorrection" >
    <i type="logical" name="LDIPOL"> F  </i>
    <i type="logical" name="LMONO"> F  </i>
    <i type="int" name="IDIPOL">     0</i>
    <i name="EPSILON">      1.00000000</i>
    <v name="DIPOL">   -100.00000000   -100.00000000   -100.00000000</v>
    <i name="EFIELD">      0.00000000</i>
   </separator>
  </separator>
  <separator name="grids" >
   <i type="int" name="NGX">    36</i>
   <i type="int" name="NGY">    36</i>
   <i type="int" name="NGZ">    40</i>
   <i type="int" name="NGXF">    72</i>
   <i type="int" name="NGYF">    72</i>
   <i type="int" name="NGZF">    80</i>
   <i type="logical" name="ADDGRID"> F  </i>
  </separator>
  <separator name="ionic" >
   <i type="int" name="NSW">     0</i>
   <i type="int" name="IBRION">    -1</i>
   <i type="int" name="MDALGO">     0</i>
   <i type="int" name="ISIF">     2</i>
   <i name="PSTRESS">      0.00000000</i>
   <i name="EDIFFG">      0.00000010</i>
   <i type="int" name="NFREE">     0</i>
   <i name="POTIM">      0.50000000</i>
   <i name="SMASS">     -3.00000000</i>
   <i name="SCALEE">      1.00000000</i>
  </separator>
  <separator name="ionic md" >
   <i name="TEBEG">      0.00010000</i>
   <i name="TEEND">      0.00010000</i>
   <i type="int" name="NBLOCK">     1</i>
   <i type="int" name="KBLOCK">     1</i>
   <i type="int" name="NPACO">   256</i>
   <i name="APACO">     10.00000000</i>
  </separator>
  <separator name="symmetry" >
   <i type="int" name="ISYM">     2</i>
   <i name="SYMPREC">      0.00001000</i>
  </separator>
  <separator name="dos" >
   <i type="int" name="LORBIT">     0</i>
   <v name="RWIGS">     -1.00000000     -1.00000000</v>
   <i type="int" name="NEDOS">   301</i>
   <i name="EMIN">     10.00000000</i>
   <i name="EMAX">    -10.00000000</i>
   <i name="EFERMI">      0.00000000</i>
  </separator>
  <separator name="writing" >
   <i type="int" name="NWRITE">     2</i>
   <i type="logical" name="LWAVE"> T  </i>
   <i type="logical" name="LDOWNSAMPLE"> F  </i>
   <i type="logical" name="LCHARG"> T  </i>
   <i type="logical" name="LPARD"> F  </i>
   <i type="logical" name="LVTOT"> F  </i>
   <i type="logical" name="LVHAR"> F  </i>
   <i type="logical" name="LELF"> F  </i>
   <i type="logical" name="LOPTICS"> F  </i>
   <v name="STM">      0.00000000      0.00000000      0.00000000      0.00000000      0.00000000      0.00000000      0.00000000</v>
  </separator>
  <separator name="performance" >
   <i type="int" name="NPAR">     1</i>
   <i type="int" name="NSIM">     4</i>
   <i type="int" name="NBLK">    -1</i>
   <i type="logical" name="LPLANE"> T  </i>
   <i type="logical" name="LSCALAPACK"> T  </i>
   <i type="logical" name="LSCAAWARE"> F  </i>
   <i type="logical" name="LSCALU"> F  </i>
   <i type="logical" name="LASYNC"> F  </i>
   <i type="logical" name="LORBITALREAL"> F  </i>
  </separator>
  <separator name="miscellaneous" >
   <i type="int" name="IDIOT">     3</i>
   <i type="int" name="PHON_NSTRUCT">    -1</i>
   <i type="logical" name="LMUSIC"> F  </i>
   <v name="POMASS">     28.08500000     16.00000000</v>
   <v name="DARWINR">      0.00000000      0.00000000</v>
   <v name="DARWINV">      1.00000000      1.00000000</v>
   <i type="logical" name="LCORR"> T  </i>
  </separator>
  <i type="logical" name="GGA_COMPAT"> T  </i>
  <i type="logical" name="LBERRY"> F  </i>
  <i type="int" name="ICORELEVEL">     0</i>
  <i type="logical" name="LDAU"> F  </i>
  <i type="int" name="I_CONSTRAINED_M">     0</i>
  <separator name="electronic exchange-correlation" >
   <i type="string" name="GGA">--</i>
   <i type="int" name="VOSKOWN">     0</i>
   <i type="logical" name="LHFCALC"> F  </i>
   <i type="string" name="PRECFOCK"></i>
   <i type="logical" name="LSYMGRAD"> F  </i>
   <i type="logical" name="LHFONE"> F  </i>
   <i type="logical" name="LRHFCALC"> F  </i>
   <i type="logical" name="LTHOMAS"> F  </i>
   <i type="logical" name="LMODELHF"> F  </i>
   <i type="logical" name="LFOCKACE"> F  </i>
   <i name="ENCUT4O">     -1.00000000</i>
   <i type="int" name="EXXOEP">     0</i>
   <i type="int" name="FOURORBIT">     0</i>
   <i name="AEXX">      0.00000000</i>
   <i name="HFALPHA">      0.00000000</i>
   <i name="MCALPHA">      0.00000000</i>
   <i name="ALDAX">      1.00000000</i>
   <i name="AGGAX">      1.00000000</i>
   <i name="ALDAC">      1.00000000</i>
   <i name="AGGAC">      1.00000000</i>
   <i type="int" name="NKREDX">     1</i>
   <i type="int" name="NKREDY">     1</i>
   <i type="int" name="NKREDZ">     1</i>
   <i type="logical" name="SHIFTRED"> F  </i>
   <i type="logical" name="ODDONLY"> F  </i>
   <i type="logical" name="EVENONLY"> F  </i>
   <i type="int" name="LMAXFOCK">     0</i>
   <i type="int" name="NMAXFOCKAE">     0</i>
   <i type="logical" name="LFOCKAEDFT"> F  </i>
   <i name="HFSCREEN">      0.00000000</i>
   <i name="HFSCREENC">      0.00000000</i>
   <i type="int" name="NBANDSGWLOW">     0</i>
  </separator>
  <separator name="vdW DFT" >
   <i type="logical" name="LUSE_VDW"> F  </i>
   <i type="int" name="IVDW_NL">     1</i>
   <i type="logical" name="LSPIN_VDW"> F  </i>
   <i name="Zab_VDW">     -0.84910000</i>
   <i name="PARAM1">      0.12340000</i>
   <i name="PARAM2">      1.00000000</i>
   <i name="PARAM3">      0.00000000</i>
  </separator>
  <separator name="model GW" >
   <i type="int" name="MODEL_GW">     0</i>
   <i name="MODEL_EPS0">      7.36922501</i>
   <i name="MODEL_ALPHA">      1.00000000</i>
  </separator>
  <separator name="linear response parameters" >
   <i type="logical" name="LEPSILON"> T  </i>
   <i type="logical" name="LRPA"> F  </i>
   <i type="logical" name="LNABLA"> F  </i>
   <i type="logical" name="LVEL"> F  </i>
   <i name="CSHIFT">      0.10000000</i>
   <i name="OMEGAMAX">     -1.00000000</i>
   <i name="DEG_THRESHOLD">      0.00200000</i>
   <i name="RTIME">     -0.10000000</i>
   <i name="WPLASMAI">      0.00000000</i>
   <v name="DFIELD">      0.00000000      0.00000000      0.00000000</v>
   <v name="WPLASMA">      0.00000000      0.00000000      0.00000000      0.00000000      0.00000000      0.00000000      0.00000000      0.00000000      0.00000000</v>
  </separator>
  <separator name="orbital magnetization" >
   <i type="logical" name="NUCIND"> F  </i>
   <v name="MAGPOS">      0.00000000      0.00000000      0.00000000</v>
   <i type="logical" name="LNICSALL"> T  </i>
   <i type="logical" name="ORBITALMAG"> F  </i>
   <i type="logical" name="LMAGBLOCH"> F  </i>
   <i type="logical" name="LCHIMAG"> F  </i>
   <i type="logical" name="LGAUGE"> T  </i>
   <i type="int" name="MAGATOM">     0</i>
   <v name="MAGDIPOL">      0.00000000      0.00000000      0.00000000</v>
   <v name="AVECCONST">      0.00000000      0.00000000      0.00000000</v>
  </separator>
  <separator name="response functions" >
   <i type="logical" name="LALL_IN_ONE"> F  </i>
   <i type="int" name="IALL_IN_ONE">    -1</i>
   <i type="int" name="NBANDS_WAVE">    -1</i>
   <i type="logical" name="LFINITE_TEMPERATURE"> F  </i>
   <i type="logical" name="LADDER"> F  </i>
   <i type="logical" name="LRPAFORCE"> F  </i>
   <i type="logical" name="LFXC"> F  </i>
   <i type="logical" name="LHARTREE"> T  </i>
   <i type="int" name="IBSE">     0</i>
   <v type="int" name="KPOINT">    -1     0     0     0</v>
   <i type="logical" name="LTCTC"> F  </i>
   <i type="logical" name="LTCTE"> F  </i>
   <i type="logical" name="LTETE"> F  </i>
   <i type="logical" name="LTRIPLET"> F  </i>
   <i type="logical" name="LFXCEPS"> F  </i>
   <i type="logical" name="LFXHEG"> F  </i>
   <i type="int" name="NATURALO">     2</i>
   <i type="logical" name="LHOLEGF"> F  </i>
   <i type="logical" name="L2ORDER"> F  </i>
   <i type="logical" name="LDMP1"> F  </i>
   <i type="logical" name="LMP2LT"> F  </i>
   <i type="logical" name="LSMP2LT"> F  </i>
   <i type="logical" name="LGWLF"> F  </i>
   <i name="ENCUTGW">     -1.60000002</i>
   <i name="ENCUTGWSOFT">     -1.60000002</i>
   <i name="ENCUTLF">     -1.00000000</i>
   <i type="logical" name="LESF_SPLINES"> F  </i>
   <i type="int" name="LMAXMP2">    -1</i>
   <i name="SCISSOR">      0.00000000</i>
   <i type="int" name="NOMEGA">     0</i>
   <i type="int" name="NOMEGAR">     0</i>
   <i type="int" name="NBANDSGW">    -1</i>
   <i type="int" name="NBANDSO">    -1</i>
   <i type="int" name="NBANDSV">    -1</i>
   <i type="int" name="NELMGW">     1</i>
   <i type="int" name="NELMHF">     1</i>
   <i type="int" name="DIM">     3</i>
   <i type="int" name="IESPILON">     4</i>
   <i type="int" name="ANTIRES">     0</i>
   <i name="OMEGAMAX">    -30.00000000</i>
   <i name="OMEGAMIN">    -30.00000000</i>
   <i name="OMEGATL">   -200.00000000</i>
   <i type="int" name="OMEGAGRID">     0</i>
   <i name="CSHIFT">     -0.10000000</i>
   <i type="logical" name="LSELFENERGY"> F  </i>
   <i type="logical" name="LSPECTRAL"> F  </i>
   <i type="logical" name="LSPECTRALGW"> F  </i>
   <i type="logical" name="LSINGLES"> F  </i>
   <i type="logical" name="LFERMIGW"> F  </i>
   <i type="logical" name="ODDONLYGW"> F  </i>
   <i type="logical" name="EVENONLYGW"> F  </i>
   <i type="int" name="NKREDLFX">     1</i>
   <i type="int" name="NKREDLFY">     1</i>
   <i type="int" name="NKREDLFZ">     1</i>
   <i type="int" name="MAXMEM">  2800</i>
   <i type="int" name="TELESCOPE">     0</i>
   <i type="int" name="NTAUPAR">    -1</i>
   <i type="int" name="NOMEGAPAR">    -1</i>
   <i name="DAMP_NEWTON">      0.80000001</i>
   <i name="LAMBDA">      1.00000000</i>
  </separator>
  <separator name="External order field" >
   <i name="OFIELD_KAPPA">      0.00000000</i>
   <v name="OFIELD_K">      0.00000000      0.00000000      0.00000000</v>
   <i name="OFIELD_Q6_NEAR">      0.00000000</i>
   <i name="OFIELD_Q6_FAR">      0.00000000</i>
   <i name="OFIELD_A">      0.00000000</i>
  </separator>
  <separator name="optional k-points parameters" >
   <i type="int" name="KPOINTS_OPT_MODE">     1</i>
   <i type="logical" name="LKPOINTS_OPT"> F  </i>
  </separator>
 </parameters>
 <atominfo>
  <atoms>       9 </atoms>
  <types>       2 </types>
  <array name="atoms" >
   <dimension dim="1">ion</dimension>
   <field type="string">element</field>
   <field type="int">atomtype</field>
   <set>
    <rc><c>Si</c><c>   1</c></rc>
    <rc><c>Si</c><c>   1</c></rc>
    <rc><c>Si</c><c>   1</c></rc>
    <rc><c>O </c><c>   2</c></rc>
    <rc><c>O </c><c>   2</c></rc>
    <rc><c>O </c><c>   2</c></rc>
    <rc><c>O </c><c>   2</c></rc>
    <rc><c>O </c><c>   2</c></rc>
    <rc><c>O </c><c>   2</c></rc>
   </set>
  </array>
  <array name="atomtypes" >
   <dimension dim="1">type</dimension>
   <field type="int">atomspertype</field>
   <field type="string">element</field>
   <field>mass</field>
   <field>valence</field>
   <field type="string">pseudopotential</field>
   <set>
    <rc><c>   3</c><c>Si</c><c>     28.08500000</c><c>      4.00000000</c><c>  PAW_PBE Si 05Jan2001                  </c></rc>
    <rc><c>   6</c><c>O </c><c>     16.00000000</c><c>      6.00000000</c><c>  PAW_PBE O 08Apr2002                   </c></rc>
   </set>
  </array>
 </atominfo>
 <structure name="initialpos" >
  <crystal>
   <varray name="basis" >
    <v>       4.87342988       0.00000000       0.00000000 </v>
    <v>      -2.43671494       4.22051408       0.00000000 </v>
    <v>       0.00000000       0.00000000       5.37418982 </v>
   </varray>
   <i name="volume">    110.53837516 </i>
   <varray name="rec_basis" >
    <v>       0.20519429       0.11846898      -0.00000000 </v>
    <v>       0.00000000       0.23693796       0.00000000 </v>
    <v>       0.00000000      -0.00000000       0.18607456 </v>
   </varray>
  </crystal>
  <varray name="positions" >
   <v>       0.46464935       0.00000000       0.66666667 </v>
   <v>       0.00009013       0.46474482       0.33314122 </v>
   <v>       0.53534531       0.53525518       0.00019211 </v>
   <v>       0.13534784       0.72387756       0.55419261 </v>
   <v>       0.27600296       0.41159783       0.22079520 </v>
   <v>       0.58855203       0.86447909       0.88757851 </v>
   <v>       0.41147028       0.27612245       0.77914073 </v>
   <v>       0.86440513       0.58840217       0.11253813 </v>
   <v>       0.72407294       0.13552090       0.44575482 </v>
  </varray>
 </structure>
 <calculation>
  <scstep>
   <time name="dav">    0.79    0.79</time>
   <time name="total">    0.83    0.81</time>
   <energy>
    <i name="alphaZ">     71.30271804 </i>
    <i name="ewald">  -1930.19380854 </i>
    <i name="hartreedc">   -909.39722762 </i>
    <i name="XCdc">    141.70969593 </i>
    <i name="pawpsdc">   2343.66826019 </i>
    <i name="pawaedc">  -2301.68043871 </i>
    <i name="eentropy">     -0.00759909 </i>
    <i name="bandstr">    -17.83369432 </i>
    <i name="atom">   2903.33737771 </i>
    <i name="e_fr_energy">    300.90528360 </i>
    <i name="e_wo_entrp">    300.91288269 </i>
    <i name="e_0_energy">    300.90908315 </i>
   </energy>
  </scstep>
  <scstep>
   <time name="dav">    0.82    0.82</time>
   <time name="total">    0.82    0.82</time>
   <energy>
    <i name="e_fr_energy">    -60.95967520 </i>
    <i name="e_wo_entrp">    -60.95967520 </i>
    <i name="e_0_energy">    -60.95967520 </i>
   </energy>
  </scstep>
  <scstep>
   <time name="dav">    0.77    0.77</time>
   <time name="total">    0.77    0.77</time>
   <energy>
    <i name="e_fr_energy">    -80.16476301 </i>
    <i name="e_wo_entrp">    -80.16476301 </i>
    <i name="e_0_energy">    -80.16476301 </i>
   </energy>
  </scstep>
  <scstep>
   <time name="dav">    0.77    0.77</time>
   <time name="total">    0.77    0.77</time>
   <energy>
    <i name="e_fr_energy">    -80.41811062 </i>
    <i name="e_wo_entrp">    -80.41811062 </i>
    <i name="e_0_energy">    -80.41811062 </i>
   </energy>
  </scstep>
  <scstep>
   <time name="dav">    0.75    0.76</time>
   <time name="total">    0.88    0.86</time>
   <energy>
    <i name="e_fr_energy">    -80.42324958 </i>
    <i name="e_wo_entrp">    -80.42324958 </i>
    <i name="e_0_energy">    -80.42324958 </i>
   </energy>
  </scstep>
  <scstep>
   <time name="diag">    0.08    0.08</time>
   <time name="diis">    0.86    0.86</time>
   <time name="orth">    0.01    0.01</time>
   <time name="total">    1.10    1.06</time>
   <energy>
    <i name="e_fr_energy">    -70.67418314 </i>
    <i name="e_wo_entrp">    -70.67418314 </i>
    <i name="e_0_energy">    -70.67418314 </i>
   </energy>
  </scstep>
  <scstep>
   <time name="diag">    0.08    0.08</time>
   <time name="diis">    0.95    0.95</time>
   <time name="orth">    0.01    0.01</time>
   <time name="total">    1.19    1.15</time>
   <energy>
    <i name="e_fr_energy">    -70.97631666 </i>
    <i name="e_wo_entrp">    -70.97631666 </i>
    <i name="e_0_energy">    -70.97631666 </i>
   </energy>
  </scstep>
  <scstep>
   <time name="diag">    0.08    0.08</time>
   <time name="diis">    0.95    0.96</time>
   <time name="orth">    0.01    0.01</time>
   <time name="total">    1.19    1.15</time>
   <energy>
    <i name="e_fr_energy">    -70.96827343 </i>
    <i name="e_wo_entrp">    -70.96827343 </i>
    <i name="e_0_energy">    -70.96827343 </i>
   </energy>
  </scstep>
  <scstep>
   <time name="diag">    0.08    0.08</time>
   <time name="diis">    0.97    0.97</time>
   <time name="orth">    0.01    0.01</time>
   <time name="total">    1.21    1.16</time>
   <energy>
    <i name="e_fr_energy">    -70.98737128 </i>
    <i name="e_wo_entrp">    -70.98737128 </i>
    <i name="e_0_energy">    -70.98737128 </i>
   </energy>
  </scstep>
  <scstep>
   <time name="diag">    0.08    0.08</time>
   <time name="diis">    0.97    0.97</time>
   <time name="orth">    0.01    0.01</time>
   <time name="total">    1.21    1.17</time>
   <energy>
    <i name="e_fr_energy">    -70.99268682 </i>
    <i name="e_wo_entrp">    -70.99268682 </i>
    <i name="e_0_energy">    -70.99268682 </i>
   </energy>
  </scstep>
  <scstep>
   <time name="diag">    0.08    0.08</time>
   <time name="diis">    0.97    0.97</time>
   <time name="orth">    0.01    0.01</time>
   <time name="total">    1.22    1.16</time>
   <energy>
    <i name="e_fr_energy">    -70.98881622 </i>
    <i name="e_wo_entrp">    -70.98881622 </i>
    <i name="e_0_energy">    -70.98881622 </i>
   </energy>
  </scstep>
  <scstep>
   <time name="diag">    0.08    0.08</time>
   <time name="diis">    0.97    0.97</time>
   <time name="orth">    0.01    0.01</time>
   <time name="total">    1.21    1.17</time>
   <energy>
    <i name="e_fr_energy">    -70.98942662 </i>
    <i name="e_wo_entrp">    -70.98942662 </i>
    <i name="e_0_energy">    -70.98942662 </i>
   </energy>
  </scstep>
  <scstep>
   <time name="diag">    0.08    0.08</time>
   <time name="diis">    1.03    1.03</time>
   <time name="orth">    0.01    0.01</time>
   <time name="total">    1.27    1.22</time>
   <energy>
    <i name="e_fr_energy">    -70.98919083 </i>
    <i name="e_wo_entrp">    -70.98919083 </i>
    <i name="e_0_energy">    -70.98919083 </i>
   </energy>
  </scstep>
  <scstep>
   <time name="diag">    0.08    0.08</time>
   <time name="diis">    0.97    0.98</time>
   <time name="orth">    0.01    0.01</time>
   <time name="total">    1.22    1.17</time>
   <energy>
    <i name="e_fr_energy">    -70.98914515 </i>
    <i name="e_wo_entrp">    -70.98914515 </i>
    <i name="e_0_energy">    -70.98914515 </i>
   </energy>
  </scstep>
  <scstep>
   <time name="diag">    0.08    0.08</time>
   <time name="diis">    1.07    1.07</time>
   <time name="orth">    0.01    0.01</time>
   <time name="total">    1.32    1.27</time>
   <energy>
    <i name="e_fr_energy">    -70.98914217 </i>
    <i name="e_wo_entrp">    -70.98914217 </i>
    <i name="e_0_energy">    -70.98914217 </i>
   </energy>
  </scstep>
  <scstep>
   <time name="diag">    0.08    0.08</time>
   <time name="diis">    0.98    0.98</time>
   <time name="orth">    0.01    0.01</time>
   <time name="total">    1.22    1.17</time>
   <energy>
    <i name="e_fr_energy">    -70.98914109 </i>
    <i name="e_wo_entrp">    -70.98914109 </i>
    <i name="e_0_energy">    -70.98914109 </i>
   </energy>
  </scstep>
  <scstep>
   <time name="diag">    0.08    0.08</time>
   <time name="diis">    0.98    0.99</time>
   <time name="orth">    0.01    0.01</time>
   <time name="total">    1.23    1.18</time>
   <energy>
    <i name="e_fr_energy">    -70.98914139 </i>
    <i name="e_wo_entrp">    -70.98914139 </i>
    <i name="e_0_energy">    -70.98914139 </i>
   </energy>
  </scstep>
  <scstep>
   <time name="diag">    0.08    0.08</time>
   <time name="diis">    1.00    1.00</time>
   <time name="orth">    0.01    0.01</time>
   <time name="total">    1.24    1.19</time>
   <energy>
    <i name="e_fr_energy">    -70.98914164 </i>
    <i name="e_wo_entrp">    -70.98914164 </i>
    <i name="e_0_energy">    -70.98914164 </i>
   </energy>
  </scstep>
  <scstep>
   <time name="diag">    0.08    0.08</time>
   <time name="diis">    0.97    0.98</time>
   <time name="orth">    0.01    0.01</time>
   <time name="total">    1.22    1.17</time>
   <energy>
    <i name="e_fr_energy">    -70.98914156 </i>
    <i name="e_wo_entrp">    -70.98914156 </i>
    <i name="e_0_energy">    -70.98914156 </i>
   </energy>
  </scstep>
  <scstep>
   <time name="diag">    0.08    0.08</time>
   <time name="diis">    0.97    0.98</time>
   <time name="orth">    0.01    0.01</time>
   <time name="total">    1.22    1.17</time>
   <energy>
    <i name="e_fr_energy">    -70.98914160 </i>
    <i name="e_wo_entrp">    -70.98914160 </i>
    <i name="e_0_energy">    -70.98914160 </i>
   </energy>
  </scstep>
  <scstep>
   <time name="diag">    0.08    0.08</time>
   <time name="diis">    0.67    0.67</time>
   <time name="orth">    0.01    0.01</time>
   <time name="total">    0.92    0.86</time>
   <energy>
    <i name="e_fr_energy">    -70.98914158 </i>
    <i name="e_wo_entrp">    -70.98914158 </i>
    <i name="e_0_energy">    -70.98914158 </i>
   </energy>
  </scstep>
  <scstep>
   <time name="diag">    0.08    0.08</time>
   <time name="diis">    0.65    0.65</time>
   <time name="orth">    0.01    0.01</time>
   <time name="total">    0.77    0.74</time>
   <energy>
    <i name="alphaZ">     71.30271804 </i>
    <i name="ewald">  -1930.19380854 </i>
    <i name="hartreedc">  -1040.55713099 </i>
    <i name="XCdc">    150.68545567 </i>
    <i name="pawpsdc">   8045.48872767 </i>
    <i name="pawaedc">  -8005.86652808 </i>
    <i name="eentropy">     -0.00000000 </i>
    <i name="bandstr">   -265.18595305 </i>
    <i name="atom">   2903.33737771 </i>
    <i name="e_fr_energy">    -70.98914157 </i>
    <i name="e_wo_entrp">    -70.98914157 </i>
    <i name="e_0_energy">    -70.98914157 </i>
   </energy>
  </scstep>
  <structure>
   <crystal>
    <varray name="basis" >
     <v>       4.87342988       0.00000000       0.00000000 </v>
     <v>      -2.43671494       4.22051408       0.00000000 </v>
     <v>       0.00000000       0.00000000       5.37418982 </v>
    </varray>
    <i name="volume">    110.53837516 </i>
    <varray name="rec_basis" >
     <v>       0.20519429       0.11846898      -0.00000000 </v>
     <v>       0.00000000       0.23693796       0.00000000 </v>
     <v>       0.00000000      -0.00000000       0.18607456 </v>
    </varray>
   </crystal>
   <varray name="positions" >
    <v>       0.46464935       0.00000000       0.66666667 </v>
    <v>       0.00009013       0.46474482       0.33314122 </v>
    <v>       0.53534531       0.53525518       0.00019211 </v>
    <v>       0.13534784       0.72387756       0.55419261 </v>
    <v>       0.27600296       0.41159783       0.22079520 </v>
    <v>       0.58855203       0.86447909       0.88757851 </v>
    <v>       0.41147028       0.27612245       0.77914073 </v>
    <v>       0.86440513       0.58840217       0.11253813 </v>
    <v>       0.72407294       0.13552090       0.44575482 </v>
   </varray>
  </structure>
  <varray name="forces" >
   <v>       0.02640089      -0.00000000       0.00000000 </v>
   <v>      -0.02355745       0.00257372       0.05204067 </v>
   <v>      -0.02355745      -0.00257372      -0.05204067 </v>
   <v>      -0.26306187       0.01160526       0.15277336 </v>
   <v>       0.14707693      -0.24897355       0.16248858 </v>
   <v>       0.12634194       0.24286719       0.14491893 </v>
   <v>      -0.26306187      -0.01160526      -0.15277336 </v>
   <v>       0.14707693       0.24897355      -0.16248858 </v>
   <v>       0.12634194      -0.24286719      -0.14491893 </v>
  </varray>
  <varray name="stress" >
   <v>      72.72399738       0.00000000       0.00000000 </v>
   <v>       0.00000000      71.21491079      -0.16500924 </v>
   <v>       0.00000000      -0.16500847      73.61824812 </v>
  </varray>
  <energy>
   <i name="e_fr_energy">    -70.98914157 </i>
   <i name="e_wo_entrp">    -70.98914157 </i>
   <i name="e_0_energy">    -70.98914157 </i>
  </energy>
  <scstep>
   <time name="total">   12.45    2.62</time>
   <energy>
    <i name="e_fr_energy">   -182.48246403 </i>
    <i name="e_wo_entrp">   -182.48246403 </i>
    <i name="e_0_energy">   -182.48246403 </i>
   </energy>
  </scstep>
  <scstep>
   <time name="total">   12.09    2.30</time>
   <energy>
    <i name="e_fr_energy">   -172.60661829 </i>
    <i name="e_wo_entrp">   -172.60661829 </i>
    <i name="e_0_energy">   -172.60661829 </i>
   </energy>
  </scstep>
  <scstep>
   <time name="total">   12.16    2.32</time>
   <energy>
    <i name="e_fr_energy">   -172.75460718 </i>
    <i name="e_wo_entrp">   -172.75460718 </i>
    <i name="e_0_energy">   -172.75460718 </i>
   </energy>
  </scstep>
  <scstep>
   <time name="total">    0.93    0.93</time>
   <energy>
    <i name="e_fr_energy">   -172.76213375 </i>
    <i name="e_wo_entrp">   -172.76213375 </i>
    <i name="e_0_energy">   -172.76213375 </i>
   </energy>
  </scstep>
  <scstep>
   <time name="total">    0.93    0.93</time>
   <energy>
    <i name="e_fr_energy">   -172.76232538 </i>
    <i name="e_wo_entrp">   -172.76232538 </i>
    <i name="e_0_energy">   -172.76232538 </i>
   </energy>
  </scstep>
  <scstep>
   <time name="total">    0.93    0.93</time>
   <energy>
    <i name="e_fr_energy">   -172.76234615 </i>
    <i name="e_wo_entrp">   -172.76234615 </i>
    <i name="e_0_energy">   -172.76234615 </i>
   </energy>
  </scstep>
  <scstep>
   <time name="total">    0.92    0.93</time>
   <energy>
    <i name="e_fr_energy">   -172.76234112 </i>
    <i name="e_wo_entrp">   -172.76234112 </i>
    <i name="e_0_energy">   -172.76234112 </i>
   </energy>
  </scstep>
  <scstep>
   <time name="total">    0.92    0.93</time>
   <energy>
    <i name="e_fr_energy">   -172.76234106 </i>
    <i name="e_wo_entrp">   -172.76234106 </i>
    <i name="e_0_energy">   -172.76234106 </i>
   </energy>
  </scstep>
  <scstep>
   <time name="total">    0.92    0.92</time>
   <energy>
    <i name="e_fr_energy">   -172.76234142 </i>
    <i name="e_wo_entrp">   -172.76234142 </i>
    <i name="e_0_energy">   -172.76234142 </i>
   </energy>
  </scstep>
  <scstep>
   <time name="total">    0.93    0.93</time>
   <energy>
    <i name="e_fr_energy">   -172.76234377 </i>
    <i name="e_wo_entrp">   -172.76234377 </i>
    <i name="e_0_energy">   -172.76234377 </i>
   </energy>
  </scstep>
  <scstep>
   <time name="total">   13.20    2.74</time>
   <energy>
    <i name="e_fr_energy">   -182.38017569 </i>
    <i name="e_wo_entrp">   -182.38017569 </i>
    <i name="e_0_energy">   -182.38017569 </i>
   </energy>
  </scstep>
  <scstep>
   <time name="total">   12.14    2.31</time>
   <energy>
    <i name="e_fr_energy">   -172.60981116 </i>
    <i name="e_wo_entrp">   -172.60981116 </i>
    <i name="e_0_energy">   -172.60981116 </i>
   </energy>
  </scstep>
  <scstep>
   <time name="total">   12.21    2.33</time>
   <energy>
    <i name="e_fr_energy">   -172.75514397 </i>
    <i name="e_wo_entrp">   -172.75514397 </i>
    <i name="e_0_energy">   -172.75514397 </i>
   </energy>
  </scstep>
  <scstep>
   <time name="total">    0.94    0.94</time>
   <energy>
    <i name="e_fr_energy">   -172.76238364 </i>
    <i name="e_wo_entrp">   -172.76238364 </i>
    <i name="e_0_energy">   -172.76238364 </i>
   </energy>
  </scstep>
  <scstep>
   <time name="total">    0.94    0.94</time>
   <energy>
    <i name="e_fr_energy">   -172.76254792 </i>
    <i name="e_wo_entrp">   -172.76254792 </i>
    <i name="e_0_energy">   -172.76254792 </i>
   </energy>
  </scstep>
  <scstep>
   <time name="total">    0.93    0.94</time>
   <energy>
    <i name="e_fr_energy">   -172.76255758 </i>
    <i name="e_wo_entrp">   -172.76255758 </i>
    <i name="e_0_energy">   -172.76255758 </i>
   </energy>
  </scstep>
  <scstep>
   <time name="total">    0.94    0.94</time>
   <energy>
    <i name="e_fr_energy">   -172.76256173 </i>
    <i name="e_wo_entrp">   -172.76256173 </i>
    <i name="e_0_energy">   -172.76256173 </i>
   </energy>
  </scstep>
  <scstep>
   <time name="total">    0.94    0.94</time>
   <energy>
    <i name="e_fr_energy">   -172.76256520 </i>
    <i name="e_wo_entrp">   -172.76256520 </i>
    <i name="e_0_energy">   -172.76256520 </i>
   </energy>
  </scstep>
  <scstep>
   <time name="total">    0.94    0.94</time>
   <energy>
    <i name="e_fr_energy">   -172.76256623 </i>
    <i name="e_wo_entrp">   -172.76256623 </i>
    <i name="e_0_energy">   -172.76256623 </i>
   </energy>
  </scstep>
  <scstep>
   <time name="total">    0.95    0.95</time>
   <energy>
    <i name="e_fr_energy">   -172.76256532 </i>
    <i name="e_wo_entrp">   -172.76256532 </i>
    <i name="e_0_energy">   -172.76256532 </i>
   </energy>
  </scstep>
  <scstep>
   <time name="total">   12.35    2.62</time>
   <energy>
    <i name="e_fr_energy">   -182.15659950 </i>
    <i name="e_wo_entrp">   -182.15659950 </i>
    <i name="e_0_energy">   -182.15659950 </i>
   </energy>
  </scstep>
  <scstep>
   <time name="total">   12.03    2.28</time>
   <energy>
    <i name="e_fr_energy">   -172.56618127 </i>
    <i name="e_wo_entrp">   -172.56618127 </i>
    <i name="e_0_energy">   -172.56618127 </i>
   </energy>
  </scstep>
  <scstep>
   <time name="total">   12.10    2.32</time>
   <energy>
    <i name="e_fr_energy">   -172.71711236 </i>
    <i name="e_wo_entrp">   -172.71711236 </i>
    <i name="e_0_energy">   -172.71711236 </i>
   </energy>
  </scstep>
  <scstep>
   <time name="total">    0.93    0.93</time>
   <energy>
    <i name="e_fr_energy">   -172.72450814 </i>
    <i name="e_wo_entrp">   -172.72450814 </i>
    <i name="e_0_energy">   -172.72450814 </i>
   </energy>
  </scstep>
  <scstep>
   <time name="total">    0.93    0.93</time>
   <energy>
    <i name="e_fr_energy">   -172.72467491 </i>
    <i name="e_wo_entrp">   -172.72467491 </i>
    <i name="e_0_energy">   -172.72467491 </i>
   </energy>
  </scstep>
  <scstep>
   <time name="total">    0.93    0.93</time>
   <energy>
    <i name="e_fr_energy">   -172.72468318 </i>
    <i name="e_wo_entrp">   -172.72468318 </i>
    <i name="e_0_energy">   -172.72468318 </i>
   </energy>
  </scstep>
  <scstep>
   <time name="total">    0.94    0.94</time>
   <energy>
    <i name="e_fr_energy">   -172.72469015 </i>
    <i name="e_wo_entrp">   -172.72469015 </i>
    <i name="e_0_energy">   -172.72469015 </i>
   </energy>
  </scstep>
  <scstep>
   <time name="total">    0.95    0.95</time>
   <energy>
    <i name="e_fr_energy">   -172.72468922 </i>
    <i name="e_wo_entrp">   -172.72468922 </i>
    <i name="e_0_energy">   -172.72468922 </i>
   </energy>
  </scstep>
  <scstep>
   <time name="total">    0.95    0.95</time>
   <energy>
    <i name="e_fr_energy">   -172.72468789 </i>
    <i name="e_wo_entrp">   -172.72468789 </i>
    <i name="e_0_energy">   -172.72468789 </i>
   </energy>
  </scstep>
  <scstep>
   <time name="total">    0.94    0.95</time>
   <energy>
    <i name="e_fr_energy">   -172.72469000 </i>
    <i name="e_wo_entrp">   -172.72469000 </i>
    <i name="e_0_energy">   -172.72469000 </i>
   </energy>
  </scstep>
  <scstep>
   <time name="total">    1.71    1.24</time>
   <energy>
    <i name="e_fr_energy">     -0.48316584 </i>
    <i name="e_wo_entrp">     -0.48316584 </i>
    <i name="e_0_energy">     -0.48316584 </i>
   </energy>
  </scstep>
  <scstep>
   <time name="total">    1.71    1.24</time>
   <energy>
    <i name="e_fr_energy">     -0.48536903 </i>
    <i name="e_wo_entrp">     -0.48536903 </i>
    <i name="e_0_energy">     -0.48536903 </i>
   </energy>
  </scstep>
  <scstep>
   <time name="total">    2.38    1.33</time>
   <energy>
    <i name="e_fr_energy">     -0.48555705 </i>
    <i name="e_wo_entrp">     -0.48555705 </i>
    <i name="e_0_energy">     -0.48555705 </i>
   </energy>
  </scstep>
  <scstep>
   <time name="total">    1.71    1.24</time>
   <energy>
    <i name="e_fr_energy">     -0.48556564 </i>
    <i name="e_wo_entrp">     -0.48556564 </i>
    <i name="e_0_energy">     -0.48556564 </i>
   </energy>
  </scstep>
  <scstep>
   <time name="total">    1.71    1.24</time>
   <energy>
    <i name="e_fr_energy">     -0.48556594 </i>
    <i name="e_wo_entrp">     -0.48556594 </i>
    <i name="e_0_energy">     -0.48556594 </i>
   </energy>
  </scstep>
  <scstep>
   <time name="total">    1.66    1.20</time>
   <energy>
    <i name="e_fr_energy">     -0.48556596 </i>
    <i name="e_wo_entrp">     -0.48556596 </i>
    <i name="e_0_energy">     -0.48556596 </i>
   </energy>
  </scstep>
  <scstep>
   <time name="total">    1.62    1.15</time>
   <energy>
    <i name="e_fr_energy">     -0.48556596 </i>
    <i name="e_wo_entrp">     -0.48556596 </i>
    <i name="e_0_energy">     -0.48556596 </i>
   </energy>
  </scstep>
  <scstep>
   <time name="total">    1.61    1.14</time>
   <energy>
    <i name="e_fr_energy">     -0.48556596 </i>
    <i name="e_wo_entrp">     -0.48556596 </i>
    <i name="e_0_energy">     -0.48556596 </i>
   </energy>
  </scstep>
  <scstep>
   <time name="total">    1.60    1.14</time>
   <energy>
    <i name="e_fr_energy">     -0.48556596 </i>
    <i name="e_wo_entrp">     -0.48556596 </i>
    <i name="e_0_energy">     -0.48556596 </i>
   </energy>
  </scstep>
  <scstep>
   <time name="total">    1.69    1.23</time>
   <energy>
    <i name="e_fr_energy">     -0.48321394 </i>
    <i name="e_wo_entrp">     -0.48321394 </i>
    <i name="e_0_energy">     -0.48321394 </i>
   </energy>
  </scstep>
  <scstep>
   <time name="total">    1.69    1.23</time>
   <energy>
    <i name="e_fr_energy">     -0.48537477 </i>
    <i name="e_wo_entrp">     -0.48537477 </i>
    <i name="e_0_energy">     -0.48537477 </i>
   </energy>
  </scstep>
  <scstep>
   <time name="total">    1.71    1.25</time>
   <energy>
    <i name="e_fr_energy">     -0.48556341 </i>
    <i name="e_wo_entrp">     -0.48556341 </i>
    <i name="e_0_energy">     -0.48556341 </i>
   </energy>
  </scstep>
  <scstep>
   <time name="total">    1.73    1.26</time>
   <energy>
    <i name="e_fr_energy">     -0.48557203 </i>
    <i name="e_wo_entrp">     -0.48557203 </i>
    <i name="e_0_energy">     -0.48557203 </i>
   </energy>
  </scstep>
  <scstep>
   <time name="total">    1.71    1.25</time>
   <energy>
    <i name="e_fr_energy">     -0.48557233 </i>
    <i name="e_wo_entrp">     -0.48557233 </i>
    <i name="e_0_energy">     -0.48557233 </i>
   </energy>
  </scstep>
  <scstep>
   <time name="total">    1.67    1.21</time>
   <energy>
    <i name="e_fr_energy">     -0.48557235 </i>
    <i name="e_wo_entrp">     -0.48557235 </i>
    <i name="e_0_energy">     -0.48557235 </i>
   </energy>
  </scstep>
  <scstep>
   <time name="total">    1.65    1.17</time>
   <energy>
    <i name="e_fr_energy">     -0.48557235 </i>
    <i name="e_wo_entrp">     -0.48557235 </i>
    <i name="e_0_energy">     -0.48557235 </i>
   </energy>
  </scstep>
  <scstep>
   <time name="total">    1.61    1.14</time>
   <energy>
    <i name="e_fr_energy">     -0.48557236 </i>
    <i name="e_wo_entrp">     -0.48557236 </i>
    <i name="e_0_energy">     -0.48557236 </i>
   </energy>
  </scstep>
  <scstep>
   <time name="total">    1.60    1.14</time>
   <energy>
    <i name="e_fr_energy">     -0.48557236 </i>
    <i name="e_wo_entrp">     -0.48557236 </i>
    <i name="e_0_energy">     -0.48557236 </i>
   </energy>
  </scstep>
  <scstep>
   <time name="total">    1.73    1.25</time>
   <energy>
    <i name="e_fr_energy">     -0.48761073 </i>
    <i name="e_wo_entrp">     -0.48761073 </i>
    <i name="e_0_energy">     -0.48761073 </i>
   </energy>
  </scstep>
  <scstep>
   <time name="total">    1.69    1.22</time>
   <energy>
    <i name="e_fr_energy">     -0.48965644 </i>
    <i name="e_wo_entrp">     -0.48965644 </i>
    <i name="e_0_energy">     -0.48965644 </i>
   </energy>
  </scstep>
  <scstep>
   <time name="total">    1.69    1.23</time>
   <energy>
    <i name="e_fr_energy">     -0.48984742 </i>
    <i name="e_wo_entrp">     -0.48984742 </i>
    <i name="e_0_energy">     -0.48984742 </i>
   </energy>
  </scstep>
  <scstep>
   <time name="total">    1.71    1.24</time>
   <energy>
    <i name="e_fr_energy">     -0.48985634 </i>
    <i name="e_wo_entrp">     -0.48985634 </i>
    <i name="e_0_energy">     -0.48985634 </i>
   </energy>
  </scstep>
  <scstep>
   <time name="total">    1.71    1.24</time>
   <energy>
    <i name="e_fr_energy">     -0.48985665 </i>
    <i name="e_wo_entrp">     -0.48985665 </i>
    <i name="e_0_energy">     -0.48985665 </i>
   </energy>
  </scstep>
  <scstep>
   <time name="total">    1.66    1.20</time>
   <energy>
    <i name="e_fr_energy">     -0.48985667 </i>
    <i name="e_wo_entrp">     -0.48985667 </i>
    <i name="e_0_energy">     -0.48985667 </i>
   </energy>
  </scstep>
  <scstep>
   <time name="total">    1.61    1.15</time>
   <energy>
    <i name="e_fr_energy">     -0.48985667 </i>
    <i name="e_wo_entrp">     -0.48985667 </i>
    <i name="e_0_energy">     -0.48985667 </i>
   </energy>
  </scstep>
  <scstep>
   <time name="total">    1.59    1.13</time>
   <energy>
    <i name="e_fr_energy">     -0.48985667 </i>
    <i name="e_wo_entrp">     -0.48985667 </i>
    <i name="e_0_energy">     -0.48985667 </i>
   </energy>
  </scstep>
  <scstep>
   <time name="total">    1.98    1.18</time>
   <energy>
    <i name="e_fr_energy">     -0.48985667 </i>
    <i name="e_wo_entrp">     -0.48985667 </i>
    <i name="e_0_energy">     -0.48985667 </i>
   </energy>
  </scstep>
  <varray name="dielectric_ipa" >
   <v>       2.58975103       0.00000000       0.00000000 </v>
   <v>       0.00000000       2.58976952       0.00010416 </v>
   <v>       0.00000000       0.00010378       2.60380863 </v>
  </varray>
  <kpoints>
   <generation param="Gamma">
    <v type="int" name="divisions">       4        4        4 </v>
    <v name="usershift">      0.00000000       0.00000000       0.00000000 </v>
    <v name="genvec1">      0.25000000       0.00000000       0.00000000 </v>
    <v name="genvec2">      0.00000000       0.25000000       0.00000000 </v>
    <v name="genvec3">      0.00000000       0.00000000       0.25000000 </v>
    <v name="shift">      0.00000000       0.00000000       0.00000000 </v>
   </generation>
   <varray name="kpointlist" >
    <v>       0.00000000       0.00000000       0.00000000 </v>
    <v>       0.25000000       0.00000000       0.00000000 </v>
    <v>       0.00000000       0.25000000       0.00000000 </v>
    <v>       0.50000000       0.00000000       0.00000000 </v>
    <v>       0.00000000       0.50000000       0.00000000 </v>
    <v>       0.25000000       0.25000000       0.00000000 </v>
    <v>       0.50000000       0.25000000       0.00000000 </v>
    <v>       0.00000000       0.00000000       0.25000000 </v>
    <v>       0.25000000       0.00000000       0.25000000 </v>
    <v>       0.00000000       0.25000000       0.25000000 </v>
    <v>      -0.25000000       0.00000000       0.25000000 </v>
    <v>       0.00000000      -0.25000000       0.25000000 </v>
    <v>       0.50000000       0.00000000       0.25000000 </v>
    <v>       0.00000000       0.50000000       0.25000000 </v>
    <v>       0.25000000       0.25000000       0.25000000 </v>
    <v>       0.50000000       0.25000000       0.25000000 </v>
    <v>      -0.25000000      -0.25000000       0.25000000 </v>
    <v>       0.00000000       0.00000000       0.50000000 </v>
    <v>       0.25000000       0.00000000       0.50000000 </v>
    <v>       0.00000000       0.25000000       0.50000000 </v>
    <v>       0.50000000       0.00000000       0.50000000 </v>
    <v>       0.00000000       0.50000000       0.50000000 </v>
    <v>       0.25000000       0.25000000       0.50000000 </v>
    <v>       0.50000000       0.25000000       0.50000000 </v>
   </varray>
   <varray name="weights" >
    <v>       0.01562500 </v>
    <v>       0.06250000 </v>
    <v>       0.03125000 </v>
    <v>       0.03125000 </v>
    <v>       0.01562500 </v>
    <v>       0.06250000 </v>
    <v>       0.03125000 </v>
    <v>       0.03125000 </v>
    <v>       0.06250000 </v>
    <v>       0.03125000 </v>
    <v>       0.06250000 </v>
    <v>       0.03125000 </v>
    <v>       0.06250000 </v>
    <v>       0.03125000 </v>
    <v>       0.06250000 </v>
    <v>       0.06250000 </v>
    <v>       0.06250000 </v>
    <v>       0.01562500 </v>
    <v>       0.06250000 </v>
    <v>       0.03125000 </v>
    <v>       0.03125000 </v>
    <v>       0.01562500 </v>
    <v>       0.06250000 </v>
    <v>       0.03125000 </v>
   </varray>
  </kpoints>
  <scstep>
   <time name="total">    1.69    1.23</time>
   <energy>
    <i name="e_fr_energy">     -0.48316584 </i>
    <i name="e_wo_entrp">     -0.48316584 </i>
    <i name="e_0_energy">     -0.48316584 </i>
   </energy>
  </scstep>
  <scstep>
   <time name="total">    1.76    1.28</time>
   <energy>
    <i name="e_fr_energy">     -0.48536903 </i>
    <i name="e_wo_entrp">     -0.48536903 </i>
    <i name="e_0_energy">     -0.48536903 </i>
   </energy>
  </scstep>
  <scstep>
   <time name="total">    1.77    1.29</time>
   <energy>
    <i name="e_fr_energy">     -0.46497576 </i>
    <i name="e_wo_entrp">     -0.46497576 </i>
    <i name="e_0_energy">     -0.46497576 </i>
   </energy>
  </scstep>
  <scstep>
   <time name="total">    1.77    1.29</time>
   <energy>
    <i name="e_fr_energy">     -0.47594507 </i>
    <i name="e_wo_entrp">     -0.47594507 </i>
    <i name="e_0_energy">     -0.47594507 </i>
   </energy>
  </scstep>
  <scstep>
   <time name="total">    1.77    1.28</time>
   <energy>
    <i name="e_fr_energy">     -0.49372080 </i>
    <i name="e_wo_entrp">     -0.49372080 </i>
    <i name="e_0_energy">     -0.49372080 </i>
   </energy>
  </scstep>
  <scstep>
   <time name="total">    1.75    1.27</time>
   <energy>
    <i name="e_fr_energy">     -0.49663872 </i>
    <i name="e_wo_entrp">     -0.49663872 </i>
    <i name="e_0_energy">     -0.49663872 </i>
   </energy>
  </scstep>
  <scstep>
   <time name="total">    1.82    1.30</time>
   <energy>
    <i name="e_fr_energy">     -0.49688662 </i>
    <i name="e_wo_entrp">     -0.49688662 </i>
    <i name="e_0_energy">     -0.49688662 </i>
   </energy>
  </scstep>
  <scstep>
   <time name="total">    1.78    1.29</time>
   <energy>
    <i name="e_fr_energy">     -0.49711858 </i>
    <i name="e_wo_entrp">     -0.49711858 </i>
    <i name="e_0_energy">     -0.49711858 </i>
   </energy>
  </scstep>
  <scstep>
   <time name="total">    1.78    1.29</time>
   <energy>
    <i name="e_fr_energy">     -0.49718005 </i>
    <i name="e_wo_entrp">     -0.49718005 </i>
    <i name="e_0_energy">     -0.49718005 </i>
   </energy>
  </scstep>
  <scstep>
   <time name="total">    1.78    1.29</time>
   <energy>
    <i name="e_fr_energy">     -0.49717602 </i>
    <i name="e_wo_entrp">     -0.49717602 </i>
    <i name="e_0_energy">     -0.49717602 </i>
   </energy>
  </scstep>
  <scstep>
   <time name="total">    1.78    1.29</time>
   <energy>
    <i name="e_fr_energy">     -0.49717695 </i>
    <i name="e_wo_entrp">     -0.49717695 </i>
    <i name="e_0_energy">     -0.49717695 </i>
   </energy>
  </scstep>
  <scstep>
   <time name="total">    1.73    1.25</time>
   <energy>
    <i name="e_fr_energy">     -0.49717695 </i>
    <i name="e_wo_entrp">     -0.49717695 </i>
    <i name="e_0_energy">     -0.49717695 </i>
   </energy>
  </scstep>
  <scstep>
   <time name="total">    1.74    1.25</time>
   <energy>
    <i name="e_fr_energy">     -0.49717698 </i>
    <i name="e_wo_entrp">     -0.49717698 </i>
    <i name="e_0_energy">     -0.49717698 </i>
   </energy>
  </scstep>
  <scstep>
   <time name="total">    1.76    1.28</time>
   <energy>
    <i name="e_fr_energy">     -0.49717701 </i>
    <i name="e_wo_entrp">     -0.49717701 </i>
    <i name="e_0_energy">     -0.49717701 </i>
   </energy>
  </scstep>
  <kpoints>
   <generation param="Gamma">
    <v type="int" name="divisions">       4        4        4 </v>
    <v name="usershift">      0.00000000       0.00000000       0.00000000 </v>
    <v name="genvec1">      0.25000000       0.00000000       0.00000000 </v>
    <v name="genvec2">      0.00000000       0.25000000       0.00000000 </v>
    <v name="genvec3">      0.00000000       0.00000000       0.25000000 </v>
    <v name="shift">      0.00000000       0.00000000       0.00000000 </v>
   </generation>
   <varray name="kpointlist" >
    <v>       0.00000000       0.00000000       0.00000000 </v>
    <v>       0.25000000       0.00000000       0.00000000 </v>
    <v>       0.00000000       0.25000000       0.00000000 </v>
    <v>      -0.25000000       0.25000000       0.00000000 </v>
    <v>       0.50000000       0.00000000       0.00000000 </v>
    <v>       0.00000000       0.50000000       0.00000000 </v>
    <v>       0.50000000       0.50000000       0.00000000 </v>
    <v>       0.25000000       0.25000000       0.00000000 </v>
    <v>      -0.25000000       0.50000000       0.00000000 </v>
    <v>       0.50000000       0.25000000       0.00000000 </v>
    <v>       0.00000000       0.00000000       0.25000000 </v>
    <v>       0.25000000       0.00000000       0.25000000 </v>
    <v>       0.00000000       0.25000000       0.25000000 </v>
    <v>      -0.25000000       0.25000000       0.25000000 </v>
    <v>      -0.25000000       0.00000000       0.25000000 </v>
    <v>       0.00000000      -0.25000000       0.25000000 </v>
    <v>       0.25000000      -0.25000000       0.25000000 </v>
    <v>       0.50000000       0.00000000       0.25000000 </v>
    <v>       0.00000000       0.50000000       0.25000000 </v>
    <v>       0.50000000       0.50000000       0.25000000 </v>
    <v>       0.25000000       0.25000000       0.25000000 </v>
    <v>      -0.25000000       0.50000000       0.25000000 </v>
    <v>       0.50000000       0.25000000       0.25000000 </v>
    <v>      -0.25000000      -0.25000000       0.25000000 </v>
    <v>       0.25000000       0.50000000       0.25000000 </v>
    <v>       0.50000000      -0.25000000       0.25000000 </v>
    <v>       0.00000000       0.00000000       0.50000000 </v>
    <v>       0.25000000       0.00000000       0.50000000 </v>
    <v>       0.00000000       0.25000000       0.50000000 </v>
    <v>      -0.25000000       0.25000000       0.50000000 </v>
    <v>       0.50000000       0.00000000       0.50000000 </v>
    <v>       0.00000000       0.50000000       0.50000000 </v>
    <v>       0.50000000       0.50000000       0.50000000 </v>
    <v>       0.25000000       0.25000000       0.50000000 </v>
    <v>      -0.25000000       0.50000000       0.50000000 </v>
    <v>       0.50000000       0.25000000       0.50000000 </v>
   </varray>
   <varray name="weights" >
    <v>       0.01562500 </v>
    <v>       0.03125000 </v>
    <v>       0.03125000 </v>
    <v>       0.03125000 </v>
    <v>       0.01562500 </v>
    <v>       0.01562500 </v>
    <v>       0.01562500 </v>
    <v>       0.03125000 </v>
    <v>       0.03125000 </v>
    <v>       0.03125000 </v>
    <v>       0.03125000 </v>
    <v>       0.03125000 </v>
    <v>       0.03125000 </v>
    <v>       0.03125000 </v>
    <v>       0.03125000 </v>
    <v>       0.03125000 </v>
    <v>       0.03125000 </v>
    <v>       0.03125000 </v>
    <v>       0.03125000 </v>
    <v>       0.03125000 </v>
    <v>       0.03125000 </v>
    <v>       0.03125000 </v>
    <v>       0.03125000 </v>
    <v>       0.03125000 </v>
    <v>       0.03125000 </v>
    <v>       0.03125000 </v>
    <v>       0.01562500 </v>
    <v>       0.03125000 </v>
    <v>       0.03125000 </v>
    <v>       0.03125000 </v>
    <v>       0.01562500 </v>
    <v>       0.01562500 </v>
    <v>       0.01562500 </v>
    <v>       0.03125000 </v>
    <v>       0.03125000 </v>
    <v>       0.03125000 </v>
   </varray>
  </kpoints>
  <scstep>
   <time name="total">    2.25    1.78</time>
   <energy>
    <i name="e_fr_energy">     -0.48321397 </i>
    <i name="e_wo_entrp">     -0.48321397 </i>
    <i name="e_0_energy">     -0.48321397 </i>
   </energy>
  </scstep>
  <scstep>
   <time name="total">    2.33    1.85</time>
   <energy>
    <i name="e_fr_energy">     -0.48537479 </i>
    <i name="e_wo_entrp">     -0.48537479 </i>
    <i name="e_0_energy">     -0.48537479 </i>
   </energy>
  </scstep>
  <scstep>
   <time name="total">    2.35    1.87</time>
   <energy>
    <i name="e_fr_energy">     -0.46525226 </i>
    <i name="e_wo_entrp">     -0.46525226 </i>
    <i name="e_0_energy">     -0.46525226 </i>
   </energy>
  </scstep>
  <scstep>
   <time name="total">    2.36    1.88</time>
   <energy>
    <i name="e_fr_energy">     -0.47610174 </i>
    <i name="e_wo_entrp">     -0.47610174 </i>
    <i name="e_0_energy">     -0.47610174 </i>
   </energy>
  </scstep>
  <scstep>
   <time name="total">    2.35    1.87</time>
   <energy>
    <i name="e_fr_energy">     -0.49382279 </i>
    <i name="e_wo_entrp">     -0.49382279 </i>
    <i name="e_0_energy">     -0.49382279 </i>
   </energy>
  </scstep>
  <scstep>
   <time name="total">    2.33    1.85</time>
   <energy>
    <i name="e_fr_energy">     -0.49675078 </i>
    <i name="e_wo_entrp">     -0.49675078 </i>
    <i name="e_0_energy">     -0.49675078 </i>
   </energy>
  </scstep>
  <scstep>
   <time name="total">    2.36    1.88</time>
   <energy>
    <i name="e_fr_energy">     -0.49698925 </i>
    <i name="e_wo_entrp">     -0.49698925 </i>
    <i name="e_0_energy">     -0.49698925 </i>
   </energy>
  </scstep>
  <scstep>
   <time name="total">    2.35    1.87</time>
   <energy>
    <i name="e_fr_energy">     -0.49722124 </i>
    <i name="e_wo_entrp">     -0.49722124 </i>
    <i name="e_0_energy">     -0.49722124 </i>
   </energy>
  </scstep>
  <scstep>
   <time name="total">    2.41    1.93</time>
   <energy>
    <i name="e_fr_energy">     -0.49728641 </i>
    <i name="e_wo_entrp">     -0.49728641 </i>
    <i name="e_0_energy">     -0.49728641 </i>
   </energy>
  </scstep>
  <scstep>
   <time name="total">    2.36    1.88</time>
   <energy>
    <i name="e_fr_energy">     -0.49728190 </i>
    <i name="e_wo_entrp">     -0.49728190 </i>
    <i name="e_0_energy">     -0.49728190 </i>
   </energy>
  </scstep>
  <scstep>
   <time name="total">    2.39    1.90</time>
   <energy>
    <i name="e_fr_energy">     -0.49728301 </i>
    <i name="e_wo_entrp">     -0.49728301 </i>
    <i name="e_0_energy">     -0.49728301 </i>
   </energy>
  </scstep>
  <scstep>
   <time name="total">    2.32    1.83</time>
   <energy>
    <i name="e_fr_energy">     -0.49728287 </i>
    <i name="e_wo_entrp">     -0.49728287 </i>
    <i name="e_0_energy">     -0.49728287 </i>
   </energy>
  </scstep>
  <scstep>
   <time name="total">    2.32    1.83</time>
   <energy>
    <i name="e_fr_energy">     -0.49728292 </i>
    <i name="e_wo_entrp">     -0.49728292 </i>
    <i name="e_0_energy">     -0.49728292 </i>
   </energy>
  </scstep>
  <scstep>
   <time name="total">    2.35    1.87</time>
   <energy>
    <i name="e_fr_energy">     -0.49728287 </i>
    <i name="e_wo_entrp">     -0.49728287 </i>
    <i name="e_0_energy">     -0.49728287 </i>
   </energy>
  </scstep>
  <kpoints>
   <generation param="Gamma">
    <v type="int" name="divisions">       4        4        4 </v>
    <v name="usershift">      0.00000000       0.00000000       0.00000000 </v>
    <v name="genvec1">      0.25000000       0.00000000       0.00000000 </v>
    <v name="genvec2">      0.00000000       0.25000000       0.00000000 </v>
    <v name="genvec3">      0.00000000       0.00000000       0.25000000 </v>
    <v name="shift">      0.00000000       0.00000000       0.00000000 </v>
   </generation>
   <varray name="kpointlist" >
    <v>       0.00000000       0.00000000       0.00000000 </v>
    <v>       0.25000000       0.00000000       0.00000000 </v>
    <v>       0.00000000       0.25000000       0.00000000 </v>
    <v>      -0.25000000       0.25000000       0.00000000 </v>
    <v>       0.50000000       0.00000000       0.00000000 </v>
    <v>       0.00000000       0.50000000       0.00000000 </v>
    <v>       0.50000000       0.50000000       0.00000000 </v>
    <v>       0.25000000       0.25000000       0.00000000 </v>
    <v>      -0.25000000       0.50000000       0.00000000 </v>
    <v>       0.50000000       0.25000000       0.00000000 </v>
    <v>       0.00000000       0.00000000       0.25000000 </v>
    <v>       0.25000000       0.00000000       0.25000000 </v>
    <v>       0.00000000       0.25000000       0.25000000 </v>
    <v>      -0.25000000       0.25000000       0.25000000 </v>
    <v>      -0.25000000       0.00000000       0.25000000 </v>
    <v>       0.00000000      -0.25000000       0.25000000 </v>
    <v>       0.25000000      -0.25000000       0.25000000 </v>
    <v>       0.50000000       0.00000000       0.25000000 </v>
    <v>       0.00000000       0.50000000       0.25000000 </v>
    <v>       0.50000000       0.50000000       0.25000000 </v>
    <v>       0.25000000       0.25000000       0.25000000 </v>
    <v>      -0.25000000       0.50000000       0.25000000 </v>
    <v>       0.50000000       0.25000000       0.25000000 </v>
    <v>      -0.25000000      -0.25000000       0.25000000 </v>
    <v>       0.25000000       0.50000000       0.25000000 </v>
    <v>       0.50000000      -0.25000000       0.25000000 </v>
    <v>       0.00000000       0.00000000       0.50000000 </v>
    <v>       0.25000000       0.00000000       0.50000000 </v>
    <v>       0.00000000       0.25000000       0.50000000 </v>
    <v>      -0.25000000       0.25000000       0.50000000 </v>
    <v>       0.50000000       0.00000000       0.50000000 </v>
    <v>       0.00000000       0.50000000       0.50000000 </v>
    <v>       0.50000000       0.50000000       0.50000000 </v>
    <v>       0.25000000       0.25000000       0.50000000 </v>
    <v>      -0.25000000       0.50000000       0.50000000 </v>
    <v>       0.50000000       0.25000000       0.50000000 </v>
   </varray>
   <varray name="weights" >
    <v>       0.01562500 </v>
    <v>       0.03125000 </v>
    <v>       0.03125000 </v>
    <v>       0.03125000 </v>
    <v>       0.01562500 </v>
    <v>       0.01562500 </v>
    <v>       0.01562500 </v>
    <v>       0.03125000 </v>
    <v>       0.03125000 </v>
    <v>       0.03125000 </v>
    <v>       0.03125000 </v>
    <v>       0.03125000 </v>
    <v>       0.03125000 </v>
    <v>       0.03125000 </v>
    <v>       0.03125000 </v>
    <v>       0.03125000 </v>
    <v>       0.03125000 </v>
    <v>       0.03125000 </v>
    <v>       0.03125000 </v>
    <v>       0.03125000 </v>
    <v>       0.03125000 </v>
    <v>       0.03125000 </v>
    <v>       0.03125000 </v>
    <v>       0.03125000 </v>
    <v>       0.03125000 </v>
    <v>       0.03125000 </v>
    <v>       0.01562500 </v>
    <v>       0.03125000 </v>
    <v>       0.03125000 </v>
    <v>       0.03125000 </v>
    <v>       0.01562500 </v>
    <v>       0.01562500 </v>
    <v>       0.01562500 </v>
    <v>       0.03125000 </v>
    <v>       0.03125000 </v>
    <v>       0.03125000 </v>
   </varray>
  </kpoints>
  <scstep>
   <time name="total">    2.24    1.78</time>
   <energy>
    <i name="e_fr_energy">     -0.48761073 </i>
    <i name="e_wo_entrp">     -0.48761073 </i>
    <i name="e_0_energy">     -0.48761073 </i>
   </energy>
  </scstep>
  <scstep>
   <time name="total">    2.31    1.83</time>
   <energy>
    <i name="e_fr_energy">     -0.48965639 </i>
    <i name="e_wo_entrp">     -0.48965639 </i>
    <i name="e_0_energy">     -0.48965639 </i>
   </energy>
  </scstep>
  <scstep>
   <time name="total">    2.33    1.85</time>
   <energy>
    <i name="e_fr_energy">     -0.47519447 </i>
    <i name="e_wo_entrp">     -0.47519447 </i>
    <i name="e_0_energy">     -0.47519447 </i>
   </energy>
  </scstep>
  <scstep>
   <time name="total">    2.35    1.87</time>
   <energy>
    <i name="e_fr_energy">     -0.48769567 </i>
    <i name="e_wo_entrp">     -0.48769567 </i>
    <i name="e_0_energy">     -0.48769567 </i>
   </energy>
  </scstep>
  <scstep>
   <time name="total">    2.34    1.86</time>
   <energy>
    <i name="e_fr_energy">     -0.50390380 </i>
    <i name="e_wo_entrp">     -0.50390380 </i>
    <i name="e_0_energy">     -0.50390380 </i>
   </energy>
  </scstep>
  <scstep>
   <time name="total">    2.30    1.82</time>
   <energy>
    <i name="e_fr_energy">     -0.50675292 </i>
    <i name="e_wo_entrp">     -0.50675292 </i>
    <i name="e_0_energy">     -0.50675292 </i>
   </energy>
  </scstep>
  <scstep>
   <time name="total">    2.36    1.87</time>
   <energy>
    <i name="e_fr_energy">     -0.50696295 </i>
    <i name="e_wo_entrp">     -0.50696295 </i>
    <i name="e_0_energy">     -0.50696295 </i>
   </energy>
  </scstep>
  <scstep>
   <time name="total">    2.34    1.86</time>
   <energy>
    <i name="e_fr_energy">     -0.50721946 </i>
    <i name="e_wo_entrp">     -0.50721946 </i>
    <i name="e_0_energy">     -0.50721946 </i>
   </energy>
  </scstep>
  <scstep>
   <time name="total">    2.36    1.88</time>
   <energy>
    <i name="e_fr_energy">     -0.50724736 </i>
    <i name="e_wo_entrp">     -0.50724736 </i>
    <i name="e_0_energy">     -0.50724736 </i>
   </energy>
  </scstep>
  <scstep>
   <time name="total">    2.37    1.89</time>
   <energy>
    <i name="e_fr_energy">     -0.50724684 </i>
    <i name="e_wo_entrp">     -0.50724684 </i>
    <i name="e_0_energy">     -0.50724684 </i>
   </energy>
  </scstep>
  <scstep>
   <time name="total">    2.40    1.91</time>
   <energy>
    <i name="e_fr_energy">     -0.50724452 </i>
    <i name="e_wo_entrp">     -0.50724452 </i>
    <i name="e_0_energy">     -0.50724452 </i>
   </energy>
  </scstep>
  <scstep>
   <time name="total">    2.34    1.85</time>
   <energy>
    <i name="e_fr_energy">     -0.50724495 </i>
    <i name="e_wo_entrp">     -0.50724495 </i>
    <i name="e_0_energy">     -0.50724495 </i>
   </energy>
  </scstep>
  <scstep>
   <time name="total">    2.38    1.89</time>
   <energy>
    <i name="e_fr_energy">     -0.50724494 </i>
    <i name="e_wo_entrp">     -0.50724494 </i>
    <i name="e_0_energy">     -0.50724494 </i>
   </energy>
  </scstep>
  <scstep>
   <time name="total">    2.34    1.85</time>
   <energy>
    <i name="e_fr_energy">     -0.50724506 </i>
    <i name="e_wo_entrp">     -0.50724506 </i>
    <i name="e_0_energy">     -0.50724506 </i>
   </energy>
  </scstep>
  <kpoints>
   <generation param="Gamma">
    <v type="int" name="divisions">       4        4        4 </v>
    <v name="usershift">      0.00000000       0.00000000       0.00000000 </v>
    <v name="genvec1">      0.25000000       0.00000000       0.00000000 </v>
    <v name="genvec2">      0.00000000       0.25000000       0.00000000 </v>
    <v name="genvec3">      0.00000000       0.00000000       0.25000000 </v>
    <v name="shift">      0.00000000       0.00000000       0.00000000 </v>
   </generation>
   <varray name="kpointlist" >
    <v>       0.00000000       0.00000000       0.00000000 </v>
    <v>       0.25000000       0.00000000       0.00000000 </v>
    <v>       0.00000000       0.25000000       0.00000000 </v>
    <v>       0.50000000       0.00000000       0.00000000 </v>
    <v>       0.00000000       0.50000000       0.00000000 </v>
    <v>       0.25000000       0.25000000       0.00000000 </v>
    <v>       0.50000000       0.25000000       0.00000000 </v>
    <v>       0.00000000       0.00000000       0.25000000 </v>
    <v>       0.25000000       0.00000000       0.25000000 </v>
    <v>       0.00000000       0.25000000       0.25000000 </v>
    <v>      -0.25000000       0.00000000       0.25000000 </v>
    <v>       0.00000000      -0.25000000       0.25000000 </v>
    <v>       0.50000000       0.00000000       0.25000000 </v>
    <v>       0.00000000       0.50000000       0.25000000 </v>
    <v>       0.25000000       0.25000000       0.25000000 </v>
    <v>       0.50000000       0.25000000       0.25000000 </v>
    <v>      -0.25000000      -0.25000000       0.25000000 </v>
    <v>       0.00000000       0.00000000       0.50000000 </v>
    <v>       0.25000000       0.00000000       0.50000000 </v>
    <v>       0.00000000       0.25000000       0.50000000 </v>
    <v>       0.50000000       0.00000000       0.50000000 </v>
    <v>       0.00000000       0.50000000       0.50000000 </v>
    <v>       0.25000000       0.25000000       0.50000000 </v>
    <v>       0.50000000       0.25000000       0.50000000 </v>
   </varray>
   <varray name="weights" >
    <v>       0.01562500 </v>
    <v>       0.06250000 </v>
    <v>       0.03125000 </v>
    <v>       0.03125000 </v>
    <v>       0.01562500 </v>
    <v>       0.06250000 </v>
    <v>       0.03125000 </v>
    <v>       0.03125000 </v>
    <v>       0.06250000 </v>
    <v>       0.03125000 </v>
    <v>       0.06250000 </v>
    <v>       0.03125000 </v>
    <v>       0.06250000 </v>
    <v>       0.03125000 </v>
    <v>       0.06250000 </v>
    <v>       0.06250000 </v>
    <v>       0.06250000 </v>
    <v>       0.01562500 </v>
    <v>       0.06250000 </v>
    <v>       0.03125000 </v>
    <v>       0.03125000 </v>
    <v>       0.01562500 </v>
    <v>       0.06250000 </v>
    <v>       0.03125000 </v>
   </varray>
  </kpoints>
  <varray name="dielectric_dft" >
   <v>       2.48064591       0.00000000       0.00000000 </v>
   <v>       0.00000000       2.48099637       0.00011428 </v>
   <v>       0.00000000       0.00011256       2.51334705 </v>
  </varray>
  <varray name="epsilon" >
   <v>       2.48064591       0.00000000       0.00000000 </v>
   <v>       0.00000000       2.48099637       0.00011428 </v>
   <v>       0.00000000       0.00011256       2.51334705 </v>
  </varray>
  <kpoints>
   <generation param="Gamma">
    <v type="int" name="divisions">       4        4        4 </v>
    <v name="usershift">      0.00000000       0.00000000       0.00000000 </v>
    <v name="genvec1">      0.25000000       0.00000000       0.00000000 </v>
    <v name="genvec2">      0.00000000       0.25000000       0.00000000 </v>
    <v name="genvec3">      0.00000000       0.00000000       0.25000000 </v>
    <v name="shift">      0.00000000       0.00000000       0.00000000 </v>
   </generation>
   <varray name="kpointlist" >
    <v>       0.00000000       0.00000000       0.00000000 </v>
    <v>       0.25000000       0.00000000       0.00000000 </v>
    <v>       0.00000000       0.25000000       0.00000000 </v>
    <v>       0.50000000       0.00000000       0.00000000 </v>
    <v>       0.00000000       0.50000000       0.00000000 </v>
    <v>       0.25000000       0.25000000       0.00000000 </v>
    <v>       0.50000000       0.25000000       0.00000000 </v>
    <v>       0.00000000       0.00000000       0.25000000 </v>
    <v>       0.25000000       0.00000000       0.25000000 </v>
    <v>       0.00000000       0.25000000       0.25000000 </v>
    <v>      -0.25000000       0.00000000       0.25000000 </v>
    <v>       0.00000000      -0.25000000       0.25000000 </v>
    <v>       0.50000000       0.00000000       0.25000000 </v>
    <v>       0.00000000       0.50000000       0.25000000 </v>
    <v>       0.25000000       0.25000000       0.25000000 </v>
    <v>       0.50000000       0.25000000       0.25000000 </v>
    <v>      -0.25000000      -0.25000000       0.25000000 </v>
    <v>       0.00000000       0.00000000       0.50000000 </v>
    <v>       0.25000000       0.00000000       0.50000000 </v>
    <v>       0.00000000       0.25000000       0.50000000 </v>
    <v>       0.50000000       0.00000000       0.50000000 </v>
    <v>       0.00000000       0.50000000       0.50000000 </v>
    <v>       0.25000000       0.25000000       0.50000000 </v>
    <v>       0.50000000       0.25000000       0.50000000 </v>
   </varray>
   <varray name="weights" >
    <v>       0.01562500 </v>
    <v>       0.06250000 </v>
    <v>       0.03125000 </v>
    <v>       0.03125000 </v>
    <v>       0.01562500 </v>
    <v>       0.06250000 </v>
    <v>       0.03125000 </v>
    <v>       0.03125000 </v>
    <v>       0.06250000 </v>
    <v>       0.03125000 </v>
    <v>       0.06250000 </v>
    <v>       0.03125000 </v>
    <v>       0.06250000 </v>
    <v>       0.03125000 </v>
    <v>       0.06250000 </v>
    <v>       0.06250000 </v>
    <v>       0.06250000 </v>
    <v>       0.01562500 </v>
    <v>       0.06250000 </v>
    <v>       0.03125000 </v>
    <v>       0.03125000 </v>
    <v>       0.01562500 </v>
    <v>       0.06250000 </v>
    <v>       0.03125000 </v>
   </varray>
  </kpoints>
  <array name="born_charges" >
   <dimension dim="1">ion</dimension>
   <set>
    <v>       2.98035205       0.00000000      -0.00000000 </v>
    <v>       0.00000000       3.61933698      -0.32124295 </v>
    <v>       0.00000000       0.27770783       3.42463467 </v>
   </set>
   <set>
    <v>       3.46051576       0.27796007       0.27807575 </v>
    <v>       0.27718898       3.14121112       0.16115071 </v>
    <v>      -0.24095677      -0.13914670       3.42558966 </v>
   </set>
   <set>
    <v>       3.46051576      -0.27796007      -0.27807575 </v>
    <v>      -0.27718898       3.14121112       0.16115071 </v>
    <v>       0.24095677      -0.13914670       3.42558966 </v>
   </set>
   <set>
    <v>      -1.31068883      -0.49336392      -0.31030964 </v>
    <v>      -0.43560079      -1.98881018      -0.67926937 </v>
    <v>      -0.24325146      -0.72089540      -1.71251595 </v>
   </set>
   <set>
    <v>      -2.22273462      -0.08962042       0.74283772 </v>
    <v>      -0.03288117      -1.07857269       0.07077395 </v>
    <v>       0.74741940       0.14966461      -1.71250380 </v>
   </set>
   <set>
    <v>      -1.41726834       0.49770688      -0.43289177 </v>
    <v>       0.55474137      -1.88349674       0.60796619 </v>
    <v>      -0.50311128       0.57152358      -1.71288724 </v>
   </set>
   <set>
    <v>      -1.31068883       0.49336392       0.31030964 </v>
    <v>       0.43560079      -1.98881018      -0.67926937 </v>
    <v>       0.24325146      -0.72089540      -1.71251595 </v>
   </set>
   <set>
    <v>      -2.22273462       0.08962042      -0.74283772 </v>
    <v>       0.03288117      -1.07857269       0.07077395 </v>
    <v>      -0.74741940       0.14966461      -1.71250380 </v>
   </set>
   <set>
    <v>      -1.41726834      -0.49770688       0.43289177 </v>
    <v>      -0.55474137      -1.88349674       0.60796619 </v>
    <v>       0.50311128       0.57152358      -1.71288724 </v>
   </set>
  </array>
  <time name="totalsc">  316.12  184.19</time>
  <eigenvalues>
   <array>
    <dimension dim="1">band</dimension>
    <dimension dim="2">kpoint</dimension>
    <dimension dim="3">spin</dimension>
    <field>eigene</field>
    <field>occ</field>
    <set>
     <set comment="spin 1">
      <set comment="kpoint 1">
       <r>  -18.1720    1.0000 </r>
       <r>  -16.6253    1.0000 </r>
       <r>  -16.6148    1.0000 </r>
       <r>  -15.9585    1.0000 </r>
       <r>  -15.9413    1.0000 </r>
       <r>  -15.9365    1.0000 </r>
       <r>   -6.8844    1.0000 </r>
       <r>   -6.8735    1.0000 </r>
       <r>   -4.1465    1.0000 </r>
       <r>   -4.0643    1.0000 </r>
       <r>   -3.9141    1.0000 </r>
       <r>   -3.9079    1.0000 </r>
       <r>   -1.6900    1.0000 </r>
       <r>   -1.6813    1.0000 </r>
       <r>   -1.3748    1.0000 </r>
       <r>   -1.1507    1.0000 </r>
       <r>   -0.1568    1.0000 </r>
       <r>   -0.1541    1.0000 </r>
       <r>   -0.0980    1.0000 </r>
       <r>    0.2575    1.0000 </r>
       <r>    0.2651    1.0000 </r>
       <r>    0.4586    1.0000 </r>
       <r>    1.0012    1.0000 </r>
       <r>    1.0073    1.0000 </r>
       <r>    7.3235    0.0000 </r>
       <r>   10.6034    0.0000 </r>
       <r>   10.6136    0.0000 </r>
       <r>   11.2364    0.0000 </r>
       <r>   11.2368    0.0000 </r>
      </set>
      <set comment="kpoint 2">
       <r>  -17.9875    1.0000 </r>
       <r>  -16.8195    1.0000 </r>
       <r>  -16.5962    1.0000 </r>
       <r>  -16.0207    1.0000 </r>
       <r>  -15.9750    1.0000 </r>
       <r>  -15.9393    1.0000 </r>
       <r>   -6.9544    1.0000 </r>
       <r>   -6.5119    1.0000 </r>
       <r>   -4.2195    1.0000 </r>
       <r>   -4.1527    1.0000 </r>
       <r>   -4.0310    1.0000 </r>
       <r>   -3.6199    1.0000 </r>
       <r>   -1.8741    1.0000 </r>
       <r>   -1.5555    1.0000 </r>
       <r>   -1.3481    1.0000 </r>
       <r>   -0.8975    1.0000 </r>
       <r>   -0.6963    1.0000 </r>
       <r>   -0.2402    1.0000 </r>
       <r>   -0.1602    1.0000 </r>
       <r>    0.1777    1.0000 </r>
       <r>    0.2784    1.0000 </r>
       <r>    0.4219    1.0000 </r>
       <r>    1.0525    1.0000 </r>
       <r>    1.1428    1.0000 </r>
       <r>    8.2330    0.0000 </r>
       <r>   10.6686    0.0000 </r>
       <r>   10.7205    0.0000 </r>
       <r>   11.2083    0.0000 </r>
       <r>   11.4827    0.0000 </r>
      </set>
      <set comment="kpoint 3">
       <r>  -17.9891    1.0000 </r>
       <r>  -16.8203    1.0000 </r>
       <r>  -16.5886    1.0000 </r>
       <r>  -16.0164    1.0000 </r>
       <r>  -15.9793    1.0000 </r>
       <r>  -15.9444    1.0000 </r>
       <r>   -6.9621    1.0000 </r>
       <r>   -6.5039    1.0000 </r>
       <r>   -4.2145    1.0000 </r>
       <r>   -4.1571    1.0000 </r>
       <r>   -4.0356    1.0000 </r>
       <r>   -3.6167    1.0000 </r>
       <r>   -1.8706    1.0000 </r>
       <r>   -1.5591    1.0000 </r>
       <r>   -1.3469    1.0000 </r>
       <r>   -0.8959    1.0000 </r>
       <r>   -0.6989    1.0000 </r>
       <r>   -0.2373    1.0000 </r>
       <r>   -0.1595    1.0000 </r>
       <r>    0.1826    1.0000 </r>
       <r>    0.2739    1.0000 </r>
       <r>    0.4193    1.0000 </r>
       <r>    1.0556    1.0000 </r>
       <r>    1.1393    1.0000 </r>
       <r>    8.2330    0.0000 </r>
       <r>   10.6708    0.0000 </r>
       <r>   10.7200    0.0000 </r>
       <r>   11.2052    0.0000 </r>
       <r>   11.4826    0.0000 </r>
      </set>
      <set comment="kpoint 4">
       <r>  -17.6618    1.0000 </r>
       <r>  -17.1858    1.0000 </r>
       <r>  -16.5673    1.0000 </r>
       <r>  -16.0452    1.0000 </r>
       <r>  -16.0035    1.0000 </r>
       <r>  -15.9622    1.0000 </r>
       <r>   -7.0281    1.0000 </r>
       <r>   -6.0464    1.0000 </r>
       <r>   -4.5586    1.0000 </r>
       <r>   -4.0947    1.0000 </r>
       <r>   -4.0862    1.0000 </r>
       <r>   -3.2835    1.0000 </r>
       <r>   -1.8227    1.0000 </r>
       <r>   -1.6251    1.0000 </r>
       <r>   -1.4351    1.0000 </r>
       <r>   -1.0004    1.0000 </r>
       <r>   -0.7926    1.0000 </r>
       <r>   -0.4806    1.0000 </r>
       <r>   -0.2863    1.0000 </r>
       <r>    0.1935    1.0000 </r>
       <r>    0.2830    1.0000 </r>
       <r>    0.5597    1.0000 </r>
       <r>    1.0148    1.0000 </r>
       <r>    1.2423    1.0000 </r>
       <r>    9.6349    0.0000 </r>
       <r>   10.3728    0.0000 </r>
       <r>   10.9663    0.0000 </r>
       <r>   10.9884    0.0000 </r>
       <r>   12.0005    0.0000 </r>
      </set>
      <set comment="kpoint 5">
       <r>  -17.6714    1.0000 </r>
       <r>  -17.1745    1.0000 </r>
       <r>  -16.5600    1.0000 </r>
       <r>  -16.0449    1.0000 </r>
       <r>  -15.9951    1.0000 </r>
       <r>  -15.9798    1.0000 </r>
       <r>   -7.0355    1.0000 </r>
       <r>   -6.0391    1.0000 </r>
       <r>   -4.5514    1.0000 </r>
       <r>   -4.0985    1.0000 </r>
       <r>   -4.0953    1.0000 </r>
       <r>   -3.2782    1.0000 </r>
       <r>   -1.8261    1.0000 </r>
       <r>   -1.6179    1.0000 </r>
       <r>   -1.4343    1.0000 </r>
       <r>   -1.0027    1.0000 </r>
       <r>   -0.7919    1.0000 </r>
       <r>   -0.4773    1.0000 </r>
       <r>   -0.2906    1.0000 </r>
       <r>    0.1995    1.0000 </r>
       <r>    0.2794    1.0000 </r>
       <r>    0.5592    1.0000 </r>
       <r>    1.0156    1.0000 </r>
       <r>    1.2390    1.0000 </r>
       <r>    9.6357    0.0000 </r>
[...]
       <r>    1.1220    1.0000 </r>
       <r>   10.2274    0.0000 </r>
       <r>   10.7273    0.0000 </r>
       <r>   11.0139    0.0000 </r>
       <r>   11.2004    0.0000 </r>
       <r>   11.5405    0.0000 </r>
      </set>
      <set comment="kpoint 22">
       <r>  -17.5945    1.0000 </r>
       <r>  -17.1340    1.0000 </r>
       <r>  -16.6999    1.0000 </r>
       <r>  -16.0689    1.0000 </r>
       <r>  -15.9926    1.0000 </r>
       <r>  -15.9694    1.0000 </r>
       <r>   -6.8822    1.0000 </r>
       <r>   -5.9088    1.0000 </r>
       <r>   -5.0428    1.0000 </r>
       <r>   -4.0047    1.0000 </r>
       <r>   -3.7010    1.0000 </r>
       <r>   -3.6163    1.0000 </r>
       <r>   -1.9295    1.0000 </r>
       <r>   -1.9233    1.0000 </r>
       <r>   -1.1445    1.0000 </r>
       <r>   -0.8318    1.0000 </r>
       <r>   -0.7470    1.0000 </r>
       <r>   -0.2690    1.0000 </r>
       <r>    0.0240    1.0000 </r>
       <r>    0.1908    1.0000 </r>
       <r>    0.4004    1.0000 </r>
       <r>    0.4014    1.0000 </r>
       <r>    0.6996    1.0000 </r>
       <r>    1.1144    1.0000 </r>
       <r>   10.2272    0.0000 </r>
       <r>   10.7209    0.0000 </r>
       <r>   11.0158    0.0000 </r>
       <r>   11.2000    0.0000 </r>
       <r>   11.5356    0.0000 </r>
      </set>
      <set comment="kpoint 23">
       <r>  -17.5773    1.0000 </r>
       <r>  -17.1842    1.0000 </r>
       <r>  -16.6505    1.0000 </r>
       <r>  -16.0620    1.0000 </r>
       <r>  -15.9964    1.0000 </r>
       <r>  -15.9904    1.0000 </r>
       <r>   -6.8581    1.0000 </r>
       <r>   -5.8688    1.0000 </r>
       <r>   -5.1556    1.0000 </r>
       <r>   -3.8989    1.0000 </r>
       <r>   -3.7941    1.0000 </r>
       <r>   -3.6158    1.0000 </r>
       <r>   -1.9740    1.0000 </r>
       <r>   -1.7465    1.0000 </r>
       <r>   -1.2653    1.0000 </r>
       <r>   -0.9012    1.0000 </r>
       <r>   -0.6230    1.0000 </r>
       <r>   -0.4202    1.0000 </r>
       <r>    0.1499    1.0000 </r>
       <r>    0.2567    1.0000 </r>
       <r>    0.3287    1.0000 </r>
       <r>    0.5715    1.0000 </r>
       <r>    0.7158    1.0000 </r>
       <r>    0.9227    1.0000 </r>
       <r>   10.1770    0.0000 </r>
       <r>   10.6508    0.0000 </r>
       <r>   10.9643    0.0000 </r>
       <r>   11.3034    0.0000 </r>
       <r>   11.7233    0.0000 </r>
      </set>
      <set comment="kpoint 24">
       <r>  -17.5714    1.0000 </r>
       <r>  -17.1895    1.0000 </r>
       <r>  -16.6563    1.0000 </r>
       <r>  -16.0624    1.0000 </r>
       <r>  -15.9921    1.0000 </r>
       <r>  -15.9890    1.0000 </r>
       <r>   -6.8537    1.0000 </r>
       <r>   -5.8727    1.0000 </r>
       <r>   -5.1573    1.0000 </r>
       <r>   -3.8960    1.0000 </r>
       <r>   -3.7965    1.0000 </r>
       <r>   -3.6149    1.0000 </r>
       <r>   -1.9739    1.0000 </r>
       <r>   -1.7477    1.0000 </r>
       <r>   -1.2636    1.0000 </r>
       <r>   -0.8987    1.0000 </r>
       <r>   -0.6213    1.0000 </r>
       <r>   -0.4262    1.0000 </r>
       <r>    0.1482    1.0000 </r>
       <r>    0.2538    1.0000 </r>
       <r>    0.3279    1.0000 </r>
       <r>    0.5708    1.0000 </r>
       <r>    0.7178    1.0000 </r>
       <r>    0.9270    1.0000 </r>
       <r>   10.1772    0.0000 </r>
       <r>   10.6514    0.0000 </r>
       <r>   10.9612    0.0000 </r>
       <r>   11.3079    0.0000 </r>
       <r>   11.7220    0.0000 </r>
      </set>
     </set>
    </set>
   </array>
  </eigenvalues>
  <separator name="orbital magnetization" >
   <v name="MAGDIPOLOUT">      0.00000000      0.00000000      0.00000000</v>
  </separator>
  <dos>
   <i name="efermi">      1.78551752 </i>
   <total>
    <array>
     <dimension dim="1">gridpoints</dimension>
     <dimension dim="2">spin</dimension>
     <field>energy</field>
     <field>total</field>
     <field>integrated</field>
     <set>
      <set comment="spin 1">
       <r>   -19.6806     0.0000     0.0000 </r>
       <r>   -19.5700     0.0000     0.0000 </r>
       <r>   -19.4594     0.0000     0.0000 </r>
       <r>   -19.3487     0.0000     0.0000 </r>
       <r>   -19.2381     0.0000     0.0000 </r>
       <r>   -19.1275     0.0000     0.0000 </r>
       <r>   -19.0168     0.0000     0.0000 </r>
       <r>   -18.9062     0.0000     0.0000 </r>
       <r>   -18.7956     0.0000     0.0000 </r>
       <r>   -18.6849     0.0000     0.0000 </r>
       <r>   -18.5743     0.0000     0.0000 </r>
       <r>   -18.4637     0.0000     0.0000 </r>
       <r>   -18.3530     0.0015     0.0002 </r>
       <r>   -18.2424     0.0455     0.0052 </r>
       <r>   -18.1318     0.2561     0.0335 </r>
       <r>   -18.0211     0.9595     0.1397 </r>
       <r>   -17.9105     2.1809     0.3810 </r>
       <r>   -17.7999     2.2501     0.6299 </r>
       <r>   -17.6892     3.1595     0.9794 </r>
       <r>   -17.5786     6.7021     1.7209 </r>
       <r>   -17.4680     3.7395     2.1346 </r>
       <r>   -17.3573     0.7698     2.2198 </r>
       <r>   -17.2467     1.6703     2.4046 </r>
       <r>   -17.1361     7.3285     3.2153 </r>
       <r>   -17.0254     4.7016     3.7355 </r>
       <r>   -16.9148     0.5625     3.7977 </r>
       <r>   -16.8042     0.9830     3.9065 </r>
       <r>   -16.6935     2.7495     4.2107 </r>
       <r>   -16.5829     6.4569     4.9250 </r>
       <r>   -16.4723     3.7461     5.3394 </r>
       <r>   -16.3616     1.9965     5.5603 </r>
       <r>   -16.2510     2.2035     5.8041 </r>
       <r>   -16.1404     3.0272     6.1390 </r>
       <r>   -16.0297    16.1239     7.9228 </r>
       <r>   -15.9191    27.0563    10.9161 </r>
       <r>   -15.8085     9.2498    11.9395 </r>
       <r>   -15.6979     0.5428    11.9995 </r>
       <r>   -15.5872     0.0044    12.0000 </r>
       <r>   -15.4766     0.0000    12.0000 </r>
       <r>   -15.3660     0.0000    12.0000 </r>
       <r>   -15.2553     0.0000    12.0000 </r>
       <r>   -15.1447     0.0000    12.0000 </r>
       <r>   -15.0341     0.0000    12.0000 </r>
       <r>   -14.9234     0.0000    12.0000 </r>
       <r>   -14.8128     0.0000    12.0000 </r>
       <r>   -14.7022     0.0000    12.0000 </r>
       <r>   -14.5915     0.0000    12.0000 </r>
       <r>   -14.4809     0.0000    12.0000 </r>
       <r>   -14.3703     0.0000    12.0000 </r>
       <r>   -14.2596     0.0000    12.0000 </r>
       <r>   -14.1490     0.0000    12.0000 </r>
       <r>   -14.0384     0.0000    12.0000 </r>
       <r>   -13.9277     0.0000    12.0000 </r>
       <r>   -13.8171     0.0000    12.0000 </r>
       <r>   -13.7065     0.0000    12.0000 </r>
       <r>   -13.5958     0.0000    12.0000 </r>
       <r>   -13.4852     0.0000    12.0000 </r>
       <r>   -13.3746     0.0000    12.0000 </r>
       <r>   -13.2639     0.0000    12.0000 </r>
       <r>   -13.1533     0.0000    12.0000 </r>
       <r>   -13.0427     0.0000    12.0000 </r>
       <r>   -12.9320     0.0000    12.0000 </r>
       <r>   -12.8214     0.0000    12.0000 </r>
       <r>   -12.7108     0.0000    12.0000 </r>
       <r>   -12.6001     0.0000    12.0000 </r>
       <r>   -12.4895     0.0000    12.0000 </r>
       <r>   -12.3789     0.0000    12.0000 </r>
       <r>   -12.2682     0.0000    12.0000 </r>
       <r>   -12.1576     0.0000    12.0000 </r>
       <r>   -12.0470     0.0000    12.0000 </r>
       <r>   -11.9364     0.0000    12.0000 </r>
       <r>   -11.8257     0.0000    12.0000 </r>
       <r>   -11.7151     0.0000    12.0000 </r>
       <r>   -11.6045     0.0000    12.0000 </r>
       <r>   -11.4938     0.0000    12.0000 </r>
       <r>   -11.3832     0.0000    12.0000 </r>
       <r>   -11.2726     0.0000    12.0000 </r>
       <r>   -11.1619     0.0000    12.0000 </r>
       <r>   -11.0513     0.0000    12.0000 </r>
       <r>   -10.9407     0.0000    12.0000 </r>
       <r>   -10.8300     0.0000    12.0000 </r>
       <r>   -10.7194     0.0000    12.0000 </r>
       <r>   -10.6088     0.0000    12.0000 </r>
       <r>   -10.4981     0.0000    12.0000 </r>
       <r>   -10.3875     0.0000    12.0000 </r>
       <r>   -10.2769     0.0000    12.0000 </r>
       <r>   -10.1662     0.0000    12.0000 </r>
       <r>   -10.0556     0.0000    12.0000 </r>
       <r>    -9.9450     0.0000    12.0000 </r>
       <r>    -9.8343     0.0000    12.0000 </r>
       <r>    -9.7237     0.0000    12.0000 </r>
       <r>    -9.6131     0.0000    12.0000 </r>
       <r>    -9.5024     0.0000    12.0000 </r>
       <r>    -9.3918     0.0000    12.0000 </r>
       <r>    -9.2812     0.0000    12.0000 </r>
       <r>    -9.1705     0.0000    12.0000 </r>
       <r>    -9.0599     0.0000    12.0000 </r>
       <r>    -8.9493     0.0000    12.0000 </r>
       <r>    -8.8386     0.0000    12.0000 </r>
       <r>    -8.7280     0.0000    12.0000 </r>
       <r>    -8.6174     0.0000    12.0000 </r>
       <r>    -8.5067     0.0000    12.0000 </r>
       <r>    -8.3961     0.0000    12.0000 </r>
       <r>    -8.2855     0.0000    12.0000 </r>
       <r>    -8.1749     0.0001    12.0000 </r>
       <r>    -8.0642     0.0119    12.0013 </r>
       <r>    -7.9536     0.1118    12.0137 </r>
       <r>    -7.8430     0.1382    12.0290 </r>
       <r>    -7.7323     0.0946    12.0395 </r>
       <r>    -7.6217     0.4198    12.0859 </r>
       <r>    -7.5111     0.9780    12.1941 </r>
       <r>    -7.4004     1.2341    12.3306 </r>
       <r>    -7.2898     1.9629    12.5478 </r>
       <r>    -7.1792     1.0205    12.6607 </r>
       <r>    -7.0685     1.4081    12.8165 </r>
       <r>    -6.9579     4.6409    13.3299 </r>
       <r>    -6.8473     4.7285    13.8530 </r>
       <r>    -6.7366     1.4972    14.0187 </r>
       <r>    -6.6260     0.1965    14.0404 </r>
       <r>    -6.5154     0.7059    14.1185 </r>
       <r>    -6.4047     0.7875    14.2056 </r>
       <r>    -6.2941     0.1169    14.2185 </r>
       <r>    -6.1835     0.0267    14.2215 </r>
       <r>    -6.0728     0.5360    14.2808 </r>
       <r>    -5.9622     3.4554    14.6631 </r>
       <r>    -5.8516     6.9562    15.4326 </r>
       <r>    -5.7409     2.9509    15.7591 </r>
       <r>    -5.6303     0.1985    15.7811 </r>
       <r>    -5.5197     0.0180    15.7831 </r>
       <r>    -5.4090     0.3557    15.8224 </r>
       <r>    -5.2984     0.9967    15.9327 </r>
       <r>    -5.1878     0.9288    16.0354 </r>
       <r>    -5.0771     2.2087    16.2798 </r>
       <r>    -4.9665     3.8984    16.7111 </r>
       <r>    -4.8559     2.9678    17.0394 </r>
       <r>    -4.7452     1.8687    17.2462 </r>
       <r>    -4.6346     1.8085    17.4462 </r>
       <r>    -4.5240     1.9871    17.6661 </r>
       <r>    -4.4134     0.6160    17.7342 </r>
       <r>    -4.3027     0.7562    17.8179 </r>
       <r>    -4.1921     3.1179    18.1628 </r>
       <r>    -4.0815     8.8973    19.1472 </r>
       <r>    -3.9708     9.6563    20.2155 </r>
       <r>    -3.8602     6.6504    20.9512 </r>
       <r>    -3.7496     6.7662    21.6998 </r>
       <r>    -3.6389     5.6581    22.3257 </r>
       <r>    -3.5283     5.6953    22.9558 </r>
       <r>    -3.4177     5.0796    23.5178 </r>
       <r>    -3.3070     2.6542    23.8114 </r>
       <r>    -3.1964     1.4449    23.9713 </r>
       <r>    -3.0858     0.2537    23.9994 </r>
       <r>    -2.9751     0.0057    24.0000 </r>
       <r>    -2.8645     0.0000    24.0000 </r>
       <r>    -2.7539     0.0000    24.0000 </r>
       <r>    -2.6432     0.0000    24.0000 </r>
       <r>    -2.5326     0.0000    24.0000 </r>
       <r>    -2.4220     0.0000    24.0000 </r>
       <r>    -2.3113     0.0000    24.0000 </r>
       <r>    -2.2007     0.0016    24.0002 </r>
       <r>    -2.0901     0.1670    24.0186 </r>
       <r>    -1.9794     2.6624    24.3132 </r>
       <r>    -1.8688     7.9766    25.1957 </r>
       <r>    -1.7582     8.1226    26.0943 </r>
       <r>    -1.6475     6.8100    26.8477 </r>
       <r>    -1.5369     5.3373    27.4382 </r>
       <r>    -1.4263     6.3899    28.1451 </r>
       <r>    -1.3156     8.4896    29.0843 </r>
       <r>    -1.2050     5.9265    29.7400 </r>
       <r>    -1.0944     3.8833    30.1696 </r>
       <r>    -0.9837     4.8716    30.7086 </r>
       <r>    -0.8731     8.4026    31.6382 </r>
       <r>    -0.7625     6.9260    32.4044 </r>
       <r>    -0.6519     7.3850    33.2214 </r>
       <r>    -0.5412     6.3090    33.9194 </r>
       <r>    -0.4306     6.2662    34.6126 </r>
       <r>    -0.3200     5.9492    35.2708 </r>
       <r>    -0.2093     8.0789    36.1646 </r>
       <r>    -0.0987     9.8341    37.2526 </r>
       <r>     0.0119     8.1662    38.1560 </r>
       <r>     0.1226     8.9479    39.1459 </r>
       <r>     0.2332     9.4980    40.1967 </r>
       <r>     0.3438    10.7010    41.3806 </r>
       <r>     0.4545     8.7115    42.3444 </r>
       <r>     0.5651     5.7904    42.9850 </r>
       <r>     0.6757     6.2811    43.6799 </r>
       <r>     0.7864     5.2750    44.2634 </r>
       <r>     0.8970     6.6630    45.0006 </r>
       <r>     1.0076     6.7043    45.7423 </r>
       <r>     1.1183     7.8442    46.6101 </r>
       <r>     1.2289     8.2796    47.5261 </r>
       <r>     1.3395     3.7372    47.9396 </r>
       <r>     1.4502     0.5334    47.9986 </r>
       <r>     1.5608     0.0129    48.0000 </r>
       <r>     1.6714     0.0000    48.0000 </r>
       <r>     1.7821     0.0000    48.0000 </r>
       <r>     1.8927     0.0000    48.0000 </r>
       <r>     2.0033     0.0000    48.0000 </r>
       <r>     2.1140     0.0000    48.0000 </r>
       <r>     2.2246     0.0000    48.0000 </r>
       <r>     2.3352     0.0000    48.0000 </r>
       <r>     2.4459     0.0000    48.0000 </r>
       <r>     2.5565     0.0000    48.0000 </r>
       <r>     2.6671     0.0000    48.0000 </r>
       <r>     2.7778     0.0000    48.0000 </r>
       <r>     2.8884     0.0000    48.0000 </r>
       <r>     2.9990     0.0000    48.0000 </r>
       <r>     3.1096     0.0000    48.0000 </r>
       <r>     3.2203     0.0000    48.0000 </r>
       <r>     3.3309     0.0000    48.0000 </r>
       <r>     3.4415     0.0000    48.0000 </r>
       <r>     3.5522     0.0000    48.0000 </r>
       <r>     3.6628     0.0000    48.0000 </r>
       <r>     3.7734     0.0000    48.0000 </r>
       <r>     3.8841     0.0000    48.0000 </r>
       <r>     3.9947     0.0000    48.0000 </r>
       <r>     4.1053     0.0000    48.0000 </r>
       <r>     4.2160     0.0000    48.0000 </r>
       <r>     4.3266     0.0000    48.0000 </r>
       <r>     4.4372     0.0000    48.0000 </r>
       <r>     4.5479     0.0000    48.0000 </r>
       <r>     4.6585     0.0000    48.0000 </r>
       <r>     4.7691     0.0000    48.0000 </r>
       <r>     4.8798     0.0000    48.0000 </r>
       <r>     4.9904     0.0000    48.0000 </r>
       <r>     5.1010     0.0000    48.0000 </r>
       <r>     5.2117     0.0000    48.0000 </r>
       <r>     5.3223     0.0000    48.0000 </r>
       <r>     5.4329     0.0000    48.0000 </r>
       <r>     5.5436     0.0000    48.0000 </r>
       <r>     5.6542     0.0000    48.0000 </r>
       <r>     5.7648     0.0000    48.0000 </r>
       <r>     5.8755     0.0000    48.0000 </r>
       <r>     5.9861     0.0000    48.0000 </r>
       <r>     6.0967     0.0000    48.0000 </r>
       <r>     6.2074     0.0000    48.0000 </r>
       <r>     6.3180     0.0000    48.0000 </r>
       <r>     6.4286     0.0000    48.0000 </r>
       <r>     6.5393     0.0000    48.0000 </r>
       <r>     6.6499     0.0000    48.0000 </r>
       <r>     6.7605     0.0000    48.0000 </r>
       <r>     6.8711     0.0000    48.0000 </r>
       <r>     6.9818     0.0000    48.0000 </r>
       <r>     7.0924     0.0002    48.0000 </r>
       <r>     7.2030     0.0124    48.0014 </r>
       <r>     7.3137     0.1132    48.0139 </r>
       <r>     7.4243     0.1351    48.0288 </r>
       <r>     7.5349     0.0213    48.0312 </r>
       <r>     7.6456     0.0004    48.0313 </r>
       <r>     7.7562     0.0031    48.0316 </r>
       <r>     7.8668     0.0897    48.0415 </r>
       <r>     7.9775     0.3151    48.0764 </r>
       <r>     8.0881     0.1824    48.0966 </r>
       <r>     8.1987     0.5066    48.1526 </r>
       <r>     8.3094     0.9253    48.2550 </r>
       <r>     8.4200     0.2309    48.2805 </r>
       <r>     8.5306     0.0581    48.2870 </r>
       <r>     8.6413     0.8235    48.3781 </r>
       <r>     8.7519     1.8568    48.5835 </r>
       <r>     8.8625     0.6284    48.6530 </r>
       <r>     8.9732     0.0292    48.6562 </r>
       <r>     9.0838     0.0006    48.6563 </r>
       <r>     9.1944     0.0298    48.6596 </r>
       <r>     9.3051     0.2544    48.6877 </r>
       <r>     9.4157     0.5770    48.7516 </r>
       <r>     9.5263     1.0771    48.8707 </r>
       <r>     9.6370     1.4583    49.0321 </r>
       <r>     9.7476     3.0770    49.3725 </r>
       <r>     9.8582     2.9677    49.7008 </r>
       <r>     9.9689     1.7401    49.8933 </r>
       <r>    10.0795     0.5421    49.9533 </r>
       <r>    10.1901     1.0879    50.0737 </r>
       <r>    10.3008     1.3703    50.2253 </r>
       <r>    10.4114     2.0725    50.4545 </r>
       <r>    10.5220     3.1230    50.8000 </r>
       <r>    10.6326     5.1101    51.3654 </r>
       <r>    10.7433     9.0586    52.3676 </r>
       <r>    10.8539     6.1612    53.0492 </r>
       <r>    10.9645     6.5631    53.7753 </r>
       <r>    11.0752     7.3264    54.5858 </r>
       <r>    11.1858     2.9974    54.9174 </r>
       <r>    11.2964     3.6878    55.3254 </r>
       <r>    11.4071     5.6704    55.9528 </r>
       <r>    11.5177     6.3236    56.6523 </r>
       <r>    11.6283     5.3268    57.2417 </r>
       <r>    11.7390     3.3595    57.6133 </r>
       <r>    11.8496     2.1498    57.8512 </r>
       <r>    11.9602     0.7241    57.9313 </r>
       <r>    12.0709     0.4904    57.9855 </r>
       <r>    12.1815     0.1266    57.9995 </r>
       <r>    12.2921     0.0041    58.0000 </r>
       <r>    12.4028     0.0000    58.0000 </r>
       <r>    12.5134     0.0000    58.0000 </r>
       <r>    12.6240     0.0000    58.0000 </r>
       <r>    12.7347     0.0000    58.0000 </r>
       <r>    12.8453     0.0000    58.0000 </r>
       <r>    12.9559     0.0000    58.0000 </r>
       <r>    13.0666     0.0000    58.0000 </r>
       <r>    13.1772     0.0000    58.0000 </r>
       <r>    13.2878     0.0000    58.0000 </r>
       <r>    13.3985     0.0000    58.0000 </r>
       <r>    13.5091     0.0000    58.0000 </r>
      </set>
     </set>
    </array>
   </total>
  </dos>
 </calculation>
 <structure name="finalpos" >
  <crystal>
   <varray name="basis" >
    <v>       4.87342988       0.00000000       0.00000000 </v>
    <v>      -2.43671494       4.22051408       0.00000000 </v>
    <v>       0.00000000       0.00000000       5.37418982 </v>
   </varray>
   <i name="volume">    110.53837516 </i>
   <varray name="rec_basis" >
    <v>       0.20519429       0.11846898      -0.00000000 </v>
    <v>       0.00000000       0.23693796       0.00000000 </v>
    <v>       0.00000000      -0.00000000       0.18607456 </v>
   </varray>
  </crystal>
  <varray name="positions" >
   <v>       0.46464935       0.00000000       0.66666667 </v>
   <v>       0.00009013       0.46474482       0.33314122 </v>
   <v>       0.53534531       0.53525518       0.00019211 </v>
   <v>       0.13534784       0.72387756       0.55419261 </v>
   <v>       0.27600296       0.41159783       0.22079520 </v>
   <v>       0.58855203       0.86447909       0.88757851 </v>
   <v>       0.41147028       0.27612245       0.77914073 </v>
   <v>       0.86440513       0.58840217       0.11253813 </v>
   <v>       0.72407294       0.13552090       0.44575482 </v>
  </varray>
 </structure>
</modeling>
