# epsilon and Z* of atoms 1 5
  21.21789450    0.00000000    0.00000000    0.00000000   21.21789450    0.00000000    0.00000000    0.00000000   21.21789450 
   2.59124958    0.00000000    0.00000000    0.00000000    2.59124958    0.00000000    0.00000000    0.00000000    2.59124958 
  -2.59124958    0.00000000    0.00000000    0.00000000   -2.59124958    0.00000000    0.00000000    0.00000000   -2.59124958 
