phonopy:
  version: "2.20.0"
  frequency_unit_conversion_factor: 15.633302
  symmetry_tolerance: 1.00000e-05
  configuration:
    cell_filename: "../unitcell.vasp"
    create_displacements: ".true."
    primitive_axes: "auto"
    dim: "1 1 1"

physical_unit:
  atomic_mass: "AMU"
  length: "angstrom"
  force_constants: "eV/angstrom^2"

space_group:
  type: "Fm-3m"
  number: 225
  Hall_symbol: "-F 4 2 3"

primitive_matrix:
- [  0.000000000000000,  0.500000000000000,  0.500000000000000 ]
- [  0.500000000000000,  0.000000000000000,  0.500000000000000 ]
- [  0.500000000000000,  0.500000000000000,  0.000000000000000 ]

supercell_matrix:
- [   1,   0,   0 ]
- [   0,   1,   0 ]
- [   0,   0,   1 ]

primitive_cell:
  lattice:
  - [     0.000000000000000,     2.419633000000000,     2.419633000000000 ] # a
  - [     2.419633000000000,     0.000000000000000,     2.419633000000000 ] # b
  - [     2.419633000000000,     2.419633000000000,     0.000000000000000 ] # c
  points:
  - symbol: Ca # 1
    coordinates: [  0.000000000000000,  0.000000000000000,  0.000000000000000 ]
    mass: 40.078000
  - symbol: O  # 2
    coordinates: [  0.500000000000000,  0.500000000000000,  0.500000000000000 ]
    mass: 15.999400
  reciprocal_lattice: # without 2pi
  - [    -0.206642908242696,     0.206642908242696,     0.206642908242696 ] # a*
  - [     0.206642908242696,    -0.206642908242696,     0.206642908242696 ] # b*
  - [     0.206642908242696,     0.206642908242696,    -0.206642908242696 ] # c*

unit_cell:
  lattice:
  - [     4.839266000000000,     0.000000000000000,     0.000000000000000 ] # a
  - [     0.000000000000000,     4.839266000000000,     0.000000000000000 ] # b
  - [     0.000000000000000,     0.000000000000000,     4.839266000000000 ] # c
  points:
  - symbol: Ca # 1
    coordinates: [  0.000000000000000,  0.000000000000000,  0.000000000000000 ]
    mass: 40.078000
    reduced_to: 1
  - symbol: Ca # 2
    coordinates: [  0.000000000000000,  0.500000000000000,  0.500000000000000 ]
    mass: 40.078000
    reduced_to: 1
  - symbol: Ca # 3
    coordinates: [  0.500000000000000,  0.000000000000000,  0.500000000000000 ]
    mass: 40.078000
    reduced_to: 1
  - symbol: Ca # 4
    coordinates: [  0.500000000000000,  0.500000000000000,  0.000000000000000 ]
    mass: 40.078000
    reduced_to: 1
  - symbol: O  # 5
    coordinates: [  0.500000000000000,  0.000000000000000,  0.000000000000000 ]
    mass: 15.999400
    reduced_to: 5
  - symbol: O  # 6
    coordinates: [  0.500000000000000,  0.500000000000000,  0.500000000000000 ]
    mass: 15.999400
    reduced_to: 5
  - symbol: O  # 7
    coordinates: [  0.000000000000000,  0.000000000000000,  0.500000000000000 ]
    mass: 15.999400
    reduced_to: 5
  - symbol: O  # 8
    coordinates: [  0.000000000000000,  0.500000000000000,  0.000000000000000 ]
    mass: 15.999400
    reduced_to: 5

supercell:
  lattice:
  - [     4.839266000000000,     0.000000000000000,     0.000000000000000 ] # a
  - [     0.000000000000000,     4.839266000000000,     0.000000000000000 ] # b
  - [     0.000000000000000,     0.000000000000000,     4.839266000000000 ] # c
  points:
  - symbol: Ca # 1
    coordinates: [  0.000000000000000,  0.000000000000000,  0.000000000000000 ]
    mass: 40.078000
    reduced_to: 1
  - symbol: Ca # 2
    coordinates: [  0.000000000000000,  0.500000000000000,  0.500000000000000 ]
    mass: 40.078000
    reduced_to: 1
  - symbol: Ca # 3
    coordinates: [  0.500000000000000,  0.000000000000000,  0.500000000000000 ]
    mass: 40.078000
    reduced_to: 1
  - symbol: Ca # 4
    coordinates: [  0.500000000000000,  0.500000000000000,  0.000000000000000 ]
    mass: 40.078000
    reduced_to: 1
  - symbol: O  # 5
    coordinates: [  0.500000000000000,  0.000000000000000,  0.000000000000000 ]
    mass: 15.999400
    reduced_to: 5
  - symbol: O  # 6
    coordinates: [  0.500000000000000,  0.500000000000000,  0.500000000000000 ]
    mass: 15.999400
    reduced_to: 5
  - symbol: O  # 7
    coordinates: [  0.000000000000000,  0.000000000000000,  0.500000000000000 ]
    mass: 15.999400
    reduced_to: 5
  - symbol: O  # 8
    coordinates: [  0.000000000000000,  0.500000000000000,  0.000000000000000 ]
    mass: 15.999400
    reduced_to: 5

displacements:
- atom:    1
  displacement:
    [   0.0100000000000000,  0.0000000000000000,  0.0000000000000000 ]
- atom:    5
  displacement:
    [   0.0100000000000000,  0.0000000000000000,  0.0000000000000000 ]
