<?xml version="1.0" encoding="ISO-8859-1"?>
<modeling>
 <generator>
  <i name="program" type="string">vasp </i>
  <i name="version" type="string">6.4.1  </i>
  <i name="subversion" type="string">05Apr23 (build Sep  6 2023 20:49:31) complex                          parallel </i>
  <i name="platform" type="string">LinuxNV </i>
  <i name="date" type="string">2023 10 19 </i>
  <i name="time" type="string">14:05:35 </i>
 </generator>
 <incar>
  <i type="string" name="PREC">Accurate</i>
  <i type="string" name="ALGO">Fast</i>
  <i name="EDIFF">      0.00000001</i>
  <i name="ENCUT">    500.00000000</i>
  <i type="int" name="ISMEAR">     0</i>
  <i name="SIGMA">      0.10000000</i>
  <i type="logical" name="LEPSILON"> T  </i>
 </incar>
 <primitive_cell>
  <structure name="primitive_cell" >
   <crystal>
    <varray name="basis" >
     <v>       4.87342988       0.00000000       0.00000000 </v>
     <v>      -2.43671494       4.22051408       0.00000000 </v>
     <v>       0.00000000       0.00000000       5.37418982 </v>
    </varray>
    <i name="volume">    110.53837516 </i>
    <varray name="rec_basis" >
     <v>       0.20519429       0.11846898      -0.00000000 </v>
     <v>       0.00000000       0.23693796       0.00000000 </v>
     <v>       0.00000000      -0.00000000       0.18607456 </v>
    </varray>
   </crystal>
   <varray name="positions" >
    <v>       0.46459390       0.00000001       0.66666666 </v>
    <v>       0.99991745       0.46468620       0.33328540 </v>
    <v>       0.53523125       0.53531381       0.00004793 </v>
    <v>       0.13549180       0.72382460       0.55425067 </v>
    <v>       0.27600626       0.41140960       0.22096829 </v>
    <v>       0.58856072       0.86443153       0.88734735 </v>
    <v>       0.41166720       0.27617539       0.77908268 </v>
    <v>       0.86459666       0.58859038       0.11236502 </v>
    <v>       0.72412921       0.13556847       0.44598598 </v>
   </varray>
  </structure>
  <varray name="primitive_index" >
   <v type="int" >        1 </v>
   <v type="int" >        2 </v>
   <v type="int" >        3 </v>
   <v type="int" >        4 </v>
   <v type="int" >        5 </v>
   <v type="int" >        6 </v>
   <v type="int" >        7 </v>
   <v type="int" >        8 </v>
   <v type="int" >        9 </v>
  </varray>
 </primitive_cell>
 <kpoints>
  <generation param="Gamma">
   <v type="int" name="divisions">       4        4        4 </v>
   <v name="usershift">      0.00000000       0.00000000       0.00000000 </v>
   <v name="genvec1">      0.25000000       0.00000000       0.00000000 </v>
   <v name="genvec2">      0.00000000       0.25000000       0.00000000 </v>
   <v name="genvec3">      0.00000000       0.00000000       0.25000000 </v>
   <v name="shift">      0.00000000       0.00000000       0.00000000 </v>
  </generation>
  <varray name="kpointlist" >
   <v>       0.00000000       0.00000000       0.00000000 </v>
   <v>       0.25000000       0.00000000       0.00000000 </v>
   <v>       0.00000000       0.25000000       0.00000000 </v>
   <v>       0.50000000       0.00000000       0.00000000 </v>
   <v>       0.00000000       0.50000000       0.00000000 </v>
   <v>       0.25000000       0.25000000       0.00000000 </v>
   <v>       0.50000000       0.25000000       0.00000000 </v>
   <v>       0.00000000       0.00000000       0.25000000 </v>
   <v>       0.25000000       0.00000000       0.25000000 </v>
   <v>       0.00000000       0.25000000       0.25000000 </v>
   <v>      -0.25000000       0.00000000       0.25000000 </v>
   <v>       0.00000000      -0.25000000       0.25000000 </v>
   <v>       0.50000000       0.00000000       0.25000000 </v>
   <v>       0.00000000       0.50000000       0.25000000 </v>
   <v>       0.25000000       0.25000000       0.25000000 </v>
   <v>       0.50000000       0.25000000       0.25000000 </v>
   <v>      -0.25000000      -0.25000000       0.25000000 </v>
   <v>       0.00000000       0.00000000       0.50000000 </v>
   <v>       0.25000000       0.00000000       0.50000000 </v>
   <v>       0.00000000       0.25000000       0.50000000 </v>
   <v>       0.50000000       0.00000000       0.50000000 </v>
   <v>       0.00000000       0.50000000       0.50000000 </v>
   <v>       0.25000000       0.25000000       0.50000000 </v>
   <v>       0.50000000       0.25000000       0.50000000 </v>
  </varray>
  <varray name="weights" >
   <v>       0.01562500 </v>
   <v>       0.06250000 </v>
   <v>       0.03125000 </v>
   <v>       0.03125000 </v>
   <v>       0.01562500 </v>
   <v>       0.06250000 </v>
   <v>       0.03125000 </v>
   <v>       0.03125000 </v>
   <v>       0.06250000 </v>
   <v>       0.03125000 </v>
   <v>       0.06250000 </v>
   <v>       0.03125000 </v>
   <v>       0.06250000 </v>
   <v>       0.03125000 </v>
   <v>       0.06250000 </v>
   <v>       0.06250000 </v>
   <v>       0.06250000 </v>
   <v>       0.01562500 </v>
   <v>       0.06250000 </v>
   <v>       0.03125000 </v>
   <v>       0.03125000 </v>
   <v>       0.01562500 </v>
   <v>       0.06250000 </v>
   <v>       0.03125000 </v>
  </varray>
 </kpoints>
 <parameters>
  <separator name="general" >
   <i type="string" name="SYSTEM">unknown system</i>
   <i type="logical" name="LCOMPAT"> F  </i>
  </separator>
  <separator name="electronic" >
   <i type="string" name="PREC">accura</i>
   <i name="ENMAX">    500.00000000</i>
   <i name="ENAUG">    605.39200000</i>
   <i name="EDIFF">      0.00000001</i>
   <i type="int" name="IALGO">    68</i>
   <i type="int" name="IWAVPR">    10</i>
   <i type="int" name="NBANDS">    29</i>
   <i type="int" name="NBANDSLOW">    -1</i>
   <i type="int" name="NBANDSHIGH">    -1</i>
   <i name="NELECT">     48.00000000</i>
   <i type="int" name="TURBO">     0</i>
   <i type="int" name="IRESTART">     0</i>
   <i type="int" name="NREBOOT">     0</i>
   <i type="int" name="NMIN">     0</i>
   <i name="EREF">      0.00000000</i>
   <separator name="electronic smearing" >
    <i type="int" name="ISMEAR">     0</i>
    <i name="SIGMA">      0.10000000</i>
    <i name="KSPACING">      0.50000000</i>
    <i type="logical" name="KGAMMA"> T  </i>
    <i type="logical" name="KBLOWUP"> T  </i>
   </separator>
   <separator name="electronic projectors" >
    <i type="logical" name="LREAL"> F  </i>
    <v name="ROPT">      0.00000000      0.00000000</v>
    <i type="int" name="LMAXPAW">  -100</i>
    <i type="int" name="LMAXMIX">     2</i>
    <i type="logical" name="NLSPLINE"> F  </i>
   </separator>
   <separator name="electronic startup" >
    <i type="int" name="ISTART">     0</i>
    <i type="int" name="ICHARG">     2</i>
    <i type="int" name="INIWAV">     1</i>
   </separator>
   <separator name="electronic spin" >
    <i type="int" name="ISPIN">     1</i>
    <i type="logical" name="LNONCOLLINEAR"> F  </i>
    <v name="MAGMOM">      1.00000000      1.00000000      1.00000000      1.00000000      1.00000000      1.00000000      1.00000000      1.00000000      1.00000000</v>
    <i name="NUPDOWN">     -1.00000000</i>
    <i type="logical" name="LSORBIT"> F  </i>
    <v name="SAXIS">      0.00000000      0.00000000      1.00000000</v>
    <i type="logical" name="LSPIRAL"> F  </i>
    <v name="QSPIRAL">      0.00000000      0.00000000      0.00000000</v>
    <i type="logical" name="LZEROZ"> F  </i>
   </separator>
   <separator name="electronic exchange-correlation" >
    <i type="logical" name="LASPH"> F  </i>
    <i type="logical" name="LMETAGGA"> F  </i>
   </separator>
   <separator name="electronic convergence" >
    <i type="int" name="NELM">    60</i>
    <i type="int" name="NELMDL">    -5</i>
    <i type="int" name="NELMIN">     2</i>
    <i name="ENINI">    500.00000000</i>
    <separator name="electronic convergence detail" >
     <i type="logical" name="LDIAG"> T  </i>
     <i type="logical" name="LSUBROT"> F  </i>
     <i name="WEIMIN">      0.00000000</i>
     <i name="EBREAK">      0.00000000</i>
     <i name="DEPER">      0.30000000</i>
     <i type="int" name="NRMM">     4</i>
     <i name="TIME">      0.40000000</i>
    </separator>
   </separator>
   <separator name="electronic mixer" >
    <i name="AMIX">      0.40000000</i>
    <i name="BMIX">      1.00000000</i>
    <i name="AMIN">      0.10000000</i>
    <i name="AMIX_MAG">      1.60000000</i>
    <i name="BMIX_MAG">      1.00000000</i>
    <separator name="electronic mixer details" >
     <i type="int" name="IMIX">     4</i>
     <i type="logical" name="MIXFIRST"> F  </i>
     <i type="int" name="MAXMIX">   -45</i>
     <i name="WC">    100.00000000</i>
     <i type="int" name="INIMIX">     1</i>
     <i type="int" name="MIXPRE">     1</i>
     <i type="int" name="MREMOVE">     5</i>
    </separator>
   </separator>
   <separator name="electronic dipolcorrection" >
    <i type="logical" name="LDIPOL"> F  </i>
    <i type="logical" name="LMONO"> F  </i>
    <i type="int" name="IDIPOL">     0</i>
    <i name="EPSILON">      1.00000000</i>
    <v name="DIPOL">   -100.00000000   -100.00000000   -100.00000000</v>
    <i name="EFIELD">      0.00000000</i>
   </separator>
  </separator>
  <separator name="grids" >
   <i type="int" name="NGX">    36</i>
   <i type="int" name="NGY">    36</i>
   <i type="int" name="NGZ">    40</i>
   <i type="int" name="NGXF">    72</i>
   <i type="int" name="NGYF">    72</i>
   <i type="int" name="NGZF">    80</i>
   <i type="logical" name="ADDGRID"> F  </i>
  </separator>
  <separator name="ionic" >
   <i type="int" name="NSW">     0</i>
   <i type="int" name="IBRION">    -1</i>
   <i type="int" name="MDALGO">     0</i>
   <i type="int" name="ISIF">     2</i>
   <i name="PSTRESS">      0.00000000</i>
   <i name="EDIFFG">      0.00000010</i>
   <i type="int" name="NFREE">     0</i>
   <i name="POTIM">      0.50000000</i>
   <i name="SMASS">     -3.00000000</i>
   <i name="SCALEE">      1.00000000</i>
  </separator>
  <separator name="ionic md" >
   <i name="TEBEG">      0.00010000</i>
   <i name="TEEND">      0.00010000</i>
   <i type="int" name="NBLOCK">     1</i>
   <i type="int" name="KBLOCK">     1</i>
   <i type="int" name="NPACO">   256</i>
   <i name="APACO">     10.00000000</i>
  </separator>
  <separator name="symmetry" >
   <i type="int" name="ISYM">     2</i>
   <i name="SYMPREC">      0.00001000</i>
  </separator>
  <separator name="dos" >
   <i type="int" name="LORBIT">     0</i>
   <v name="RWIGS">     -1.00000000     -1.00000000</v>
   <i type="int" name="NEDOS">   301</i>
   <i name="EMIN">     10.00000000</i>
   <i name="EMAX">    -10.00000000</i>
   <i name="EFERMI">      0.00000000</i>
  </separator>
  <separator name="writing" >
   <i type="int" name="NWRITE">     2</i>
   <i type="logical" name="LWAVE"> T  </i>
   <i type="logical" name="LDOWNSAMPLE"> F  </i>
   <i type="logical" name="LCHARG"> T  </i>
   <i type="logical" name="LPARD"> F  </i>
   <i type="logical" name="LVTOT"> F  </i>
   <i type="logical" name="LVHAR"> F  </i>
   <i type="logical" name="LELF"> F  </i>
   <i type="logical" name="LOPTICS"> F  </i>
   <v name="STM">      0.00000000      0.00000000      0.00000000      0.00000000      0.00000000      0.00000000      0.00000000</v>
  </separator>
  <separator name="performance" >
   <i type="int" name="NPAR">     1</i>
   <i type="int" name="NSIM">     4</i>
   <i type="int" name="NBLK">    -1</i>
   <i type="logical" name="LPLANE"> T  </i>
   <i type="logical" name="LSCALAPACK"> T  </i>
   <i type="logical" name="LSCAAWARE"> F  </i>
   <i type="logical" name="LSCALU"> F  </i>
   <i type="logical" name="LASYNC"> F  </i>
   <i type="logical" name="LORBITALREAL"> F  </i>
  </separator>
  <separator name="miscellaneous" >
   <i type="int" name="IDIOT">     3</i>
   <i type="int" name="PHON_NSTRUCT">    -1</i>
   <i type="logical" name="LMUSIC"> F  </i>
   <v name="POMASS">     28.08500000     16.00000000</v>
   <v name="DARWINR">      0.00000000      0.00000000</v>
   <v name="DARWINV">      1.00000000      1.00000000</v>
   <i type="logical" name="LCORR"> T  </i>
  </separator>
  <i type="logical" name="GGA_COMPAT"> T  </i>
  <i type="logical" name="LBERRY"> F  </i>
  <i type="int" name="ICORELEVEL">     0</i>
  <i type="logical" name="LDAU"> F  </i>
  <i type="int" name="I_CONSTRAINED_M">     0</i>
  <separator name="electronic exchange-correlation" >
   <i type="string" name="GGA">--</i>
   <i type="int" name="VOSKOWN">     0</i>
   <i type="logical" name="LHFCALC"> F  </i>
   <i type="string" name="PRECFOCK"></i>
   <i type="logical" name="LSYMGRAD"> F  </i>
   <i type="logical" name="LHFONE"> F  </i>
   <i type="logical" name="LRHFCALC"> F  </i>
   <i type="logical" name="LTHOMAS"> F  </i>
   <i type="logical" name="LMODELHF"> F  </i>
   <i type="logical" name="LFOCKACE"> F  </i>
   <i name="ENCUT4O">     -1.00000000</i>
   <i type="int" name="EXXOEP">     0</i>
   <i type="int" name="FOURORBIT">     0</i>
   <i name="AEXX">      0.00000000</i>
   <i name="HFALPHA">      0.00000000</i>
   <i name="MCALPHA">      0.00000000</i>
   <i name="ALDAX">      1.00000000</i>
   <i name="AGGAX">      1.00000000</i>
   <i name="ALDAC">      1.00000000</i>
   <i name="AGGAC">      1.00000000</i>
   <i type="int" name="NKREDX">     1</i>
   <i type="int" name="NKREDY">     1</i>
   <i type="int" name="NKREDZ">     1</i>
   <i type="logical" name="SHIFTRED"> F  </i>
   <i type="logical" name="ODDONLY"> F  </i>
   <i type="logical" name="EVENONLY"> F  </i>
   <i type="int" name="LMAXFOCK">     0</i>
   <i type="int" name="NMAXFOCKAE">     0</i>
   <i type="logical" name="LFOCKAEDFT"> F  </i>
   <i name="HFSCREEN">      0.00000000</i>
   <i name="HFSCREENC">      0.00000000</i>
   <i type="int" name="NBANDSGWLOW">     0</i>
  </separator>
  <separator name="vdW DFT" >
   <i type="logical" name="LUSE_VDW"> F  </i>
   <i type="int" name="IVDW_NL">     1</i>
   <i type="logical" name="LSPIN_VDW"> F  </i>
   <i name="Zab_VDW">     -0.84910000</i>
   <i name="PARAM1">      0.12340000</i>
   <i name="PARAM2">      1.00000000</i>
   <i name="PARAM3">      0.00000000</i>
  </separator>
  <separator name="model GW" >
   <i type="int" name="MODEL_GW">     0</i>
   <i name="MODEL_EPS0">      7.36922501</i>
   <i name="MODEL_ALPHA">      1.00000000</i>
  </separator>
  <separator name="linear response parameters" >
   <i type="logical" name="LEPSILON"> T  </i>
   <i type="logical" name="LRPA"> F  </i>
   <i type="logical" name="LNABLA"> F  </i>
   <i type="logical" name="LVEL"> F  </i>
   <i name="CSHIFT">      0.10000000</i>
   <i name="OMEGAMAX">     -1.00000000</i>
   <i name="DEG_THRESHOLD">      0.00200000</i>
   <i name="RTIME">     -0.10000000</i>
   <i name="WPLASMAI">      0.00000000</i>
   <v name="DFIELD">      0.00000000      0.00000000      0.00000000</v>
   <v name="WPLASMA">      0.00000000      0.00000000      0.00000000      0.00000000      0.00000000      0.00000000      0.00000000      0.00000000      0.00000000</v>
  </separator>
  <separator name="orbital magnetization" >
   <i type="logical" name="NUCIND"> F  </i>
   <v name="MAGPOS">      0.00000000      0.00000000      0.00000000</v>
   <i type="logical" name="LNICSALL"> T  </i>
   <i type="logical" name="ORBITALMAG"> F  </i>
   <i type="logical" name="LMAGBLOCH"> F  </i>
   <i type="logical" name="LCHIMAG"> F  </i>
   <i type="logical" name="LGAUGE"> T  </i>
   <i type="int" name="MAGATOM">     0</i>
   <v name="MAGDIPOL">      0.00000000      0.00000000      0.00000000</v>
   <v name="AVECCONST">      0.00000000      0.00000000      0.00000000</v>
  </separator>
  <separator name="response functions" >
   <i type="logical" name="LALL_IN_ONE"> F  </i>
   <i type="int" name="IALL_IN_ONE">    -1</i>
   <i type="int" name="NBANDS_WAVE">    -1</i>
   <i type="logical" name="LFINITE_TEMPERATURE"> F  </i>
   <i type="logical" name="LADDER"> F  </i>
   <i type="logical" name="LRPAFORCE"> F  </i>
   <i type="logical" name="LFXC"> F  </i>
   <i type="logical" name="LHARTREE"> T  </i>
   <i type="int" name="IBSE">     0</i>
   <v type="int" name="KPOINT">    -1     0     0     0</v>
   <i type="logical" name="LTCTC"> F  </i>
   <i type="logical" name="LTCTE"> F  </i>
   <i type="logical" name="LTETE"> F  </i>
   <i type="logical" name="LTRIPLET"> F  </i>
   <i type="logical" name="LFXCEPS"> F  </i>
   <i type="logical" name="LFXHEG"> F  </i>
   <i type="int" name="NATURALO">     2</i>
   <i type="logical" name="LHOLEGF"> F  </i>
   <i type="logical" name="L2ORDER"> F  </i>
   <i type="logical" name="LDMP1"> F  </i>
   <i type="logical" name="LMP2LT"> F  </i>
   <i type="logical" name="LSMP2LT"> F  </i>
   <i type="logical" name="LGWLF"> F  </i>
   <i name="ENCUTGW">     -1.60000002</i>
   <i name="ENCUTGWSOFT">     -1.60000002</i>
   <i name="ENCUTLF">     -1.00000000</i>
   <i type="logical" name="LESF_SPLINES"> F  </i>
   <i type="int" name="LMAXMP2">    -1</i>
   <i name="SCISSOR">      0.00000000</i>
   <i type="int" name="NOMEGA">     0</i>
   <i type="int" name="NOMEGAR">     0</i>
   <i type="int" name="NBANDSGW">    -1</i>
   <i type="int" name="NBANDSO">    -1</i>
   <i type="int" name="NBANDSV">    -1</i>
   <i type="int" name="NELMGW">     1</i>
   <i type="int" name="NELMHF">     1</i>
   <i type="int" name="DIM">     3</i>
   <i type="int" name="IESPILON">     4</i>
   <i type="int" name="ANTIRES">     0</i>
   <i name="OMEGAMAX">    -30.00000000</i>
   <i name="OMEGAMIN">    -30.00000000</i>
   <i name="OMEGATL">   -200.00000000</i>
   <i type="int" name="OMEGAGRID">     0</i>
   <i name="CSHIFT">     -0.10000000</i>
   <i type="logical" name="LSELFENERGY"> F  </i>
   <i type="logical" name="LSPECTRAL"> F  </i>
   <i type="logical" name="LSPECTRALGW"> F  </i>
   <i type="logical" name="LSINGLES"> F  </i>
   <i type="logical" name="LFERMIGW"> F  </i>
   <i type="logical" name="ODDONLYGW"> F  </i>
   <i type="logical" name="EVENONLYGW"> F  </i>
   <i type="int" name="NKREDLFX">     1</i>
   <i type="int" name="NKREDLFY">     1</i>
   <i type="int" name="NKREDLFZ">     1</i>
   <i type="int" name="MAXMEM">  2800</i>
   <i type="int" name="TELESCOPE">     0</i>
   <i type="int" name="NTAUPAR">    -1</i>
   <i type="int" name="NOMEGAPAR">    -1</i>
   <i name="DAMP_NEWTON">      0.80000001</i>
   <i name="LAMBDA">      1.00000000</i>
  </separator>
  <separator name="External order field" >
   <i name="OFIELD_KAPPA">      0.00000000</i>
   <v name="OFIELD_K">      0.00000000      0.00000000      0.00000000</v>
   <i name="OFIELD_Q6_NEAR">      0.00000000</i>
   <i name="OFIELD_Q6_FAR">      0.00000000</i>
   <i name="OFIELD_A">      0.00000000</i>
  </separator>
  <separator name="optional k-points parameters" >
   <i type="int" name="KPOINTS_OPT_MODE">     1</i>
   <i type="logical" name="LKPOINTS_OPT"> F  </i>
  </separator>
 </parameters>
 <atominfo>
  <atoms>       9 </atoms>
  <types>       2 </types>
  <array name="atoms" >
   <dimension dim="1">ion</dimension>
   <field type="string">element</field>
   <field type="int">atomtype</field>
   <set>
    <rc><c>Si</c><c>   1</c></rc>
    <rc><c>Si</c><c>   1</c></rc>
    <rc><c>Si</c><c>   1</c></rc>
    <rc><c>O </c><c>   2</c></rc>
    <rc><c>O </c><c>   2</c></rc>
    <rc><c>O </c><c>   2</c></rc>
    <rc><c>O </c><c>   2</c></rc>
    <rc><c>O </c><c>   2</c></rc>
    <rc><c>O </c><c>   2</c></rc>
   </set>
  </array>
  <array name="atomtypes" >
   <dimension dim="1">type</dimension>
   <field type="int">atomspertype</field>
   <field type="string">element</field>
   <field>mass</field>
   <field>valence</field>
   <field type="string">pseudopotential</field>
   <set>
    <rc><c>   3</c><c>Si</c><c>     28.08500000</c><c>      4.00000000</c><c>  PAW_PBE Si 05Jan2001                  </c></rc>
    <rc><c>   6</c><c>O </c><c>     16.00000000</c><c>      6.00000000</c><c>  PAW_PBE O 08Apr2002                   </c></rc>
   </set>
  </array>
 </atominfo>
 <structure name="initialpos" >
  <crystal>
   <varray name="basis" >
    <v>       4.87342988       0.00000000       0.00000000 </v>
    <v>      -2.43671494       4.22051408       0.00000000 </v>
    <v>       0.00000000       0.00000000       5.37418982 </v>
   </varray>
   <i name="volume">    110.53837516 </i>
   <varray name="rec_basis" >
    <v>       0.20519429       0.11846898      -0.00000000 </v>
    <v>       0.00000000       0.23693796       0.00000000 </v>
    <v>       0.00000000      -0.00000000       0.18607456 </v>
   </varray>
  </crystal>
  <varray name="positions" >
   <v>       0.46459390       0.00000001       0.66666666 </v>
   <v>       0.99991745       0.46468620       0.33328540 </v>
   <v>       0.53523125       0.53531381       0.00004793 </v>
   <v>       0.13549180       0.72382460       0.55425067 </v>
   <v>       0.27600626       0.41140960       0.22096829 </v>
   <v>       0.58856072       0.86443153       0.88734735 </v>
   <v>       0.41166720       0.27617539       0.77908268 </v>
   <v>       0.86459666       0.58859038       0.11236502 </v>
   <v>       0.72412921       0.13556847       0.44598598 </v>
  </varray>
 </structure>
 <calculation>
  <scstep>
   <time name="dav">    0.80    0.81</time>
   <time name="total">    0.84    0.83</time>
   <energy>
    <i name="alphaZ">     71.30271804 </i>
    <i name="ewald">  -1930.19432271 </i>
    <i name="hartreedc">   -909.39711870 </i>
    <i name="XCdc">    141.70968923 </i>
    <i name="pawpsdc">   2343.66826019 </i>
    <i name="pawaedc">  -2301.68043871 </i>
    <i name="eentropy">     -0.00736799 </i>
    <i name="bandstr">    -17.83207956 </i>
    <i name="atom">   2903.33737771 </i>
    <i name="e_fr_energy">    300.90671750 </i>
    <i name="e_wo_entrp">    300.91408549 </i>
    <i name="e_0_energy">    300.91040150 </i>
   </energy>
  </scstep>
  <scstep>
   <time name="dav">    0.82    0.83</time>
   <time name="total">    0.82    0.83</time>
   <energy>
    <i name="e_fr_energy">    -60.95809019 </i>
    <i name="e_wo_entrp">    -60.95809019 </i>
    <i name="e_0_energy">    -60.95809019 </i>
   </energy>
  </scstep>
  <scstep>
   <time name="dav">    0.77    0.78</time>
   <time name="total">    0.77    0.78</time>
   <energy>
    <i name="e_fr_energy">    -80.16469368 </i>
    <i name="e_wo_entrp">    -80.16469368 </i>
    <i name="e_0_energy">    -80.16469368 </i>
   </energy>
  </scstep>
  <scstep>
   <time name="dav">    0.78    0.79</time>
   <time name="total">    0.78    0.79</time>
   <energy>
    <i name="e_fr_energy">    -80.41824504 </i>
    <i name="e_wo_entrp">    -80.41824504 </i>
    <i name="e_0_energy">    -80.41824504 </i>
   </energy>
  </scstep>
  <scstep>
   <time name="dav">    0.76    0.77</time>
   <time name="total">    0.89    0.87</time>
   <energy>
    <i name="e_fr_energy">    -80.42329090 </i>
    <i name="e_wo_entrp">    -80.42329090 </i>
    <i name="e_0_energy">    -80.42329090 </i>
   </energy>
  </scstep>
  <scstep>
   <time name="diag">    0.08    0.08</time>
   <time name="diis">    0.86    0.87</time>
   <time name="orth">    0.01    0.01</time>
   <time name="total">    1.11    1.07</time>
   <energy>
    <i name="e_fr_energy">    -70.67419782 </i>
    <i name="e_wo_entrp">    -70.67419782 </i>
    <i name="e_0_energy">    -70.67419782 </i>
   </energy>
  </scstep>
  <scstep>
   <time name="diag">    0.08    0.08</time>
   <time name="diis">    0.96    0.97</time>
   <time name="orth">    0.01    0.01</time>
   <time name="total">    1.20    1.16</time>
   <energy>
    <i name="e_fr_energy">    -70.97635791 </i>
    <i name="e_wo_entrp">    -70.97635791 </i>
    <i name="e_0_energy">    -70.97635791 </i>
   </energy>
  </scstep>
  <scstep>
   <time name="diag">    0.08    0.08</time>
   <time name="diis">    0.96    0.97</time>
   <time name="orth">    0.01    0.01</time>
   <time name="total">    1.20    1.17</time>
   <energy>
    <i name="e_fr_energy">    -70.96832409 </i>
    <i name="e_wo_entrp">    -70.96832409 </i>
    <i name="e_0_energy">    -70.96832409 </i>
   </energy>
  </scstep>
  <scstep>
   <time name="diag">    0.08    0.08</time>
   <time name="diis">    0.97    0.99</time>
   <time name="orth">    0.01    0.01</time>
   <time name="total">    1.22    1.18</time>
   <energy>
    <i name="e_fr_energy">    -70.98742419 </i>
    <i name="e_wo_entrp">    -70.98742419 </i>
    <i name="e_0_energy">    -70.98742419 </i>
   </energy>
  </scstep>
  <scstep>
   <time name="diag">    0.08    0.08</time>
   <time name="diis">    0.98    0.99</time>
   <time name="orth">    0.01    0.01</time>
   <time name="total">    1.22    1.18</time>
   <energy>
    <i name="e_fr_energy">    -70.99274567 </i>
    <i name="e_wo_entrp">    -70.99274567 </i>
    <i name="e_0_energy">    -70.99274567 </i>
   </energy>
  </scstep>
  <scstep>
   <time name="diag">    0.08    0.08</time>
   <time name="diis">    0.97    0.99</time>
   <time name="orth">    0.01    0.01</time>
   <time name="total">    1.22    1.18</time>
   <energy>
    <i name="e_fr_energy">    -70.98887002 </i>
    <i name="e_wo_entrp">    -70.98887002 </i>
    <i name="e_0_energy">    -70.98887002 </i>
   </energy>
  </scstep>
  <scstep>
   <time name="diag">    0.08    0.08</time>
   <time name="diis">    0.98    0.99</time>
   <time name="orth">    0.01    0.01</time>
   <time name="total">    1.22    1.18</time>
   <energy>
    <i name="e_fr_energy">    -70.98948160 </i>
    <i name="e_wo_entrp">    -70.98948160 </i>
    <i name="e_0_energy">    -70.98948160 </i>
   </energy>
  </scstep>
  <scstep>
   <time name="diag">    0.08    0.08</time>
   <time name="diis">    1.03    1.05</time>
   <time name="orth">    0.01    0.01</time>
   <time name="total">    1.28    1.24</time>
   <energy>
    <i name="e_fr_energy">    -70.98924585 </i>
    <i name="e_wo_entrp">    -70.98924585 </i>
    <i name="e_0_energy">    -70.98924585 </i>
   </energy>
  </scstep>
  <scstep>
   <time name="diag">    0.08    0.08</time>
   <time name="diis">    0.98    0.99</time>
   <time name="orth">    0.01    0.01</time>
   <time name="total">    1.23    1.19</time>
   <energy>
    <i name="e_fr_energy">    -70.98919929 </i>
    <i name="e_wo_entrp">    -70.98919929 </i>
    <i name="e_0_energy">    -70.98919929 </i>
   </energy>
  </scstep>
  <scstep>
   <time name="diag">    0.08    0.08</time>
   <time name="diis">    1.08    1.09</time>
   <time name="orth">    0.01    0.01</time>
   <time name="total">    1.33    1.29</time>
   <energy>
    <i name="e_fr_energy">    -70.98919631 </i>
    <i name="e_wo_entrp">    -70.98919631 </i>
    <i name="e_0_energy">    -70.98919631 </i>
   </energy>
  </scstep>
  <scstep>
   <time name="diag">    0.08    0.08</time>
   <time name="diis">    0.99    1.00</time>
   <time name="orth">    0.01    0.01</time>
   <time name="total">    1.24    1.20</time>
   <energy>
    <i name="e_fr_energy">    -70.98919536 </i>
    <i name="e_wo_entrp">    -70.98919536 </i>
    <i name="e_0_energy">    -70.98919536 </i>
   </energy>
  </scstep>
  <scstep>
   <time name="diag">    0.08    0.08</time>
   <time name="diis">    1.00    1.01</time>
   <time name="orth">    0.01    0.01</time>
   <time name="total">    1.25    1.20</time>
   <energy>
    <i name="e_fr_energy">    -70.98919567 </i>
    <i name="e_wo_entrp">    -70.98919567 </i>
    <i name="e_0_energy">    -70.98919567 </i>
   </energy>
  </scstep>
  <scstep>
   <time name="diag">    0.08    0.08</time>
   <time name="diis">    1.00    1.01</time>
   <time name="orth">    0.01    0.01</time>
   <time name="total">    1.25    1.21</time>
   <energy>
    <i name="e_fr_energy">    -70.98919592 </i>
    <i name="e_wo_entrp">    -70.98919592 </i>
    <i name="e_0_energy">    -70.98919592 </i>
   </energy>
  </scstep>
  <scstep>
   <time name="diag">    0.08    0.08</time>
   <time name="diis">    0.98    0.99</time>
   <time name="orth">    0.01    0.01</time>
   <time name="total">    1.35    1.21</time>
   <energy>
    <i name="e_fr_energy">    -70.98919585 </i>
    <i name="e_wo_entrp">    -70.98919585 </i>
    <i name="e_0_energy">    -70.98919585 </i>
   </energy>
  </scstep>
  <scstep>
   <time name="diag">    0.08    0.08</time>
   <time name="diis">    0.98    0.99</time>
   <time name="orth">    0.01    0.01</time>
   <time name="total">    1.23    1.19</time>
   <energy>
    <i name="e_fr_energy">    -70.98919588 </i>
    <i name="e_wo_entrp">    -70.98919588 </i>
    <i name="e_0_energy">    -70.98919588 </i>
   </energy>
  </scstep>
  <scstep>
   <time name="diag">    0.08    0.08</time>
   <time name="diis">    0.69    0.69</time>
   <time name="orth">    0.01    0.01</time>
   <time name="total">    0.93    0.89</time>
   <energy>
    <i name="e_fr_energy">    -70.98919585 </i>
    <i name="e_wo_entrp">    -70.98919585 </i>
    <i name="e_0_energy">    -70.98919585 </i>
   </energy>
  </scstep>
  <scstep>
   <time name="diag">    0.08    0.08</time>
   <time name="diis">    0.66    0.67</time>
   <time name="orth">    0.01    0.01</time>
   <time name="total">    0.78    0.76</time>
   <energy>
    <i name="alphaZ">     71.30271804 </i>
    <i name="ewald">  -1930.19432271 </i>
    <i name="hartreedc">  -1040.55731455 </i>
    <i name="XCdc">    150.68546654 </i>
    <i name="pawpsdc">   8045.47413029 </i>
    <i name="pawaedc">  -8005.85192804 </i>
    <i name="eentropy">     -0.00000000 </i>
    <i name="bandstr">   -265.18532313 </i>
    <i name="atom">   2903.33737771 </i>
    <i name="e_fr_energy">    -70.98919585 </i>
    <i name="e_wo_entrp">    -70.98919585 </i>
    <i name="e_0_energy">    -70.98919585 </i>
   </energy>
  </scstep>
  <structure>
   <crystal>
    <varray name="basis" >
     <v>       4.87342988       0.00000000       0.00000000 </v>
     <v>      -2.43671494       4.22051408       0.00000000 </v>
     <v>       0.00000000       0.00000000       5.37418982 </v>
    </varray>
    <i name="volume">    110.53837516 </i>
    <varray name="rec_basis" >
     <v>       0.20519429       0.11846898      -0.00000000 </v>
     <v>       0.00000000       0.23693796       0.00000000 </v>
     <v>       0.00000000      -0.00000000       0.18607456 </v>
    </varray>
   </crystal>
   <varray name="positions" >
    <v>       0.46459390       0.00000001       0.66666666 </v>
    <v>       0.99991745       0.46468620       0.33328540 </v>
    <v>       0.53523125       0.53531381       0.00004793 </v>
    <v>       0.13549180       0.72382460       0.55425067 </v>
    <v>       0.27600626       0.41140960       0.22096829 </v>
    <v>       0.58856072       0.86443153       0.88734735 </v>
    <v>       0.41166720       0.27617539       0.77908268 </v>
    <v>       0.86459666       0.58859038       0.11236502 </v>
    <v>       0.72412921       0.13556847       0.44598598 </v>
   </varray>
  </structure>
  <varray name="forces" >
   <v>       0.02650977       0.00000000       0.00000000 </v>
   <v>      -0.00115619       0.01543976       0.00497949 </v>
   <v>      -0.00115619      -0.01543976      -0.00497949 </v>
   <v>      -0.27970024       0.00620935       0.14975099 </v>
   <v>       0.13660874      -0.23331672       0.14655678 </v>
   <v>       0.13099280       0.24260102       0.16382983 </v>
   <v>      -0.27970024      -0.00620935      -0.14975099 </v>
   <v>       0.13660874       0.23331672      -0.14655678 </v>
   <v>       0.13099280      -0.24260102      -0.16382983 </v>
  </varray>
  <varray name="stress" >
   <v>      71.80987242       0.00000000       0.00000000 </v>
   <v>       0.00000000      72.11297835       0.12775041 </v>
   <v>       0.00000000       0.12775086      73.61207400 </v>
  </varray>
  <energy>
   <i name="e_fr_energy">    -70.98919585 </i>
   <i name="e_wo_entrp">    -70.98919585 </i>
   <i name="e_0_energy">    -70.98919585 </i>
  </energy>
  <scstep>
   <time name="total">   12.17    2.61</time>
   <energy>
    <i name="e_fr_energy">   -182.48771977 </i>
    <i name="e_wo_entrp">   -182.48771977 </i>
    <i name="e_0_energy">   -182.48771977 </i>
   </energy>
  </scstep>
  <scstep>
   <time name="total">   11.98    2.31</time>
   <energy>
    <i name="e_fr_energy">   -172.60995405 </i>
    <i name="e_wo_entrp">   -172.60995405 </i>
    <i name="e_0_energy">   -172.60995405 </i>
   </energy>
  </scstep>
  <scstep>
   <time name="total">   11.96    2.31</time>
   <energy>
    <i name="e_fr_energy">   -172.75809382 </i>
    <i name="e_wo_entrp">   -172.75809382 </i>
    <i name="e_0_energy">   -172.75809382 </i>
   </energy>
  </scstep>
  <scstep>
   <time name="total">    0.93    0.95</time>
   <energy>
    <i name="e_fr_energy">   -172.76561577 </i>
    <i name="e_wo_entrp">   -172.76561577 </i>
    <i name="e_0_energy">   -172.76561577 </i>
   </energy>
  </scstep>
  <scstep>
   <time name="total">    0.93    0.95</time>
   <energy>
    <i name="e_fr_energy">   -172.76579529 </i>
    <i name="e_wo_entrp">   -172.76579529 </i>
    <i name="e_0_energy">   -172.76579529 </i>
   </energy>
  </scstep>
  <scstep>
   <time name="total">    0.98    1.00</time>
   <energy>
    <i name="e_fr_energy">   -172.76582197 </i>
    <i name="e_wo_entrp">   -172.76582197 </i>
    <i name="e_0_energy">   -172.76582197 </i>
   </energy>
  </scstep>
  <scstep>
   <time name="total">    0.99    1.01</time>
   <energy>
    <i name="e_fr_energy">   -172.76581783 </i>
    <i name="e_wo_entrp">   -172.76581783 </i>
    <i name="e_0_energy">   -172.76581783 </i>
   </energy>
  </scstep>
  <scstep>
   <time name="total">    1.00    1.02</time>
   <energy>
    <i name="e_fr_energy">   -172.76581756 </i>
    <i name="e_wo_entrp">   -172.76581756 </i>
    <i name="e_0_energy">   -172.76581756 </i>
   </energy>
  </scstep>
  <scstep>
   <time name="total">    1.01    1.02</time>
   <energy>
    <i name="e_fr_energy">   -172.76581594 </i>
    <i name="e_wo_entrp">   -172.76581594 </i>
    <i name="e_0_energy">   -172.76581594 </i>
   </energy>
  </scstep>
  <scstep>
   <time name="total">    1.02    1.04</time>
   <energy>
    <i name="e_fr_energy">   -172.76581907 </i>
    <i name="e_wo_entrp">   -172.76581907 </i>
    <i name="e_0_energy">   -172.76581907 </i>
   </energy>
  </scstep>
  <scstep>
   <time name="total">   12.15    2.61</time>
   <energy>
    <i name="e_fr_energy">   -182.34013655 </i>
    <i name="e_wo_entrp">   -182.34013655 </i>
    <i name="e_0_energy">   -182.34013655 </i>
   </energy>
  </scstep>
  <scstep>
   <time name="total">   11.86    2.29</time>
   <energy>
    <i name="e_fr_energy">   -172.60572933 </i>
    <i name="e_wo_entrp">   -172.60572933 </i>
    <i name="e_0_energy">   -172.60572933 </i>
   </energy>
  </scstep>
  <scstep>
   <time name="total">   11.84    2.30</time>
   <energy>
    <i name="e_fr_energy">   -172.74973076 </i>
    <i name="e_wo_entrp">   -172.74973076 </i>
    <i name="e_0_energy">   -172.74973076 </i>
   </energy>
  </scstep>
  <scstep>
   <time name="total">    0.93    0.95</time>
   <energy>
    <i name="e_fr_energy">   -172.75690631 </i>
    <i name="e_wo_entrp">   -172.75690631 </i>
    <i name="e_0_energy">   -172.75690631 </i>
   </energy>
  </scstep>
  <scstep>
   <time name="total">    0.95    0.96</time>
   <energy>
    <i name="e_fr_energy">   -172.75705295 </i>
    <i name="e_wo_entrp">   -172.75705295 </i>
    <i name="e_0_energy">   -172.75705295 </i>
   </energy>
  </scstep>
  <scstep>
   <time name="total">    0.99    1.01</time>
   <energy>
    <i name="e_fr_energy">   -172.75706177 </i>
    <i name="e_wo_entrp">   -172.75706177 </i>
    <i name="e_0_energy">   -172.75706177 </i>
   </energy>
  </scstep>
  <scstep>
   <time name="total">    1.00    1.02</time>
   <energy>
    <i name="e_fr_energy">   -172.75707376 </i>
    <i name="e_wo_entrp">   -172.75707376 </i>
    <i name="e_0_energy">   -172.75707376 </i>
   </energy>
  </scstep>
  <scstep>
   <time name="total">    1.01    1.03</time>
   <energy>
    <i name="e_fr_energy">   -172.75707187 </i>
    <i name="e_wo_entrp">   -172.75707187 </i>
    <i name="e_0_energy">   -172.75707187 </i>
   </energy>
  </scstep>
  <scstep>
   <time name="total">    1.01    1.03</time>
   <energy>
    <i name="e_fr_energy">   -172.75707354 </i>
    <i name="e_wo_entrp">   -172.75707354 </i>
    <i name="e_0_energy">   -172.75707354 </i>
   </energy>
  </scstep>
  <scstep>
   <time name="total">    1.03    1.04</time>
   <energy>
    <i name="e_fr_energy">   -172.75707474 </i>
    <i name="e_wo_entrp">   -172.75707474 </i>
    <i name="e_0_energy">   -172.75707474 </i>
   </energy>
  </scstep>
  <scstep>
   <time name="total">   12.14    2.62</time>
   <energy>
    <i name="e_fr_energy">   -182.16863184 </i>
    <i name="e_wo_entrp">   -182.16863184 </i>
    <i name="e_0_energy">   -182.16863184 </i>
   </energy>
  </scstep>
  <scstep>
   <time name="total">   11.80    2.27</time>
   <energy>
    <i name="e_fr_energy">   -172.56452536 </i>
    <i name="e_wo_entrp">   -172.56452536 </i>
    <i name="e_0_energy">   -172.56452536 </i>
   </energy>
  </scstep>
  <scstep>
   <time name="total">   11.81    2.29</time>
   <energy>
    <i name="e_fr_energy">   -172.71172843 </i>
    <i name="e_wo_entrp">   -172.71172843 </i>
    <i name="e_0_energy">   -172.71172843 </i>
   </energy>
  </scstep>
  <scstep>
   <time name="total">    0.92    0.94</time>
   <energy>
    <i name="e_fr_energy">   -172.71758383 </i>
    <i name="e_wo_entrp">   -172.71758383 </i>
    <i name="e_0_energy">   -172.71758383 </i>
   </energy>
  </scstep>
  <scstep>
   <time name="total">    0.93    0.95</time>
   <energy>
    <i name="e_fr_energy">   -172.71751628 </i>
    <i name="e_wo_entrp">   -172.71751628 </i>
    <i name="e_0_energy">   -172.71751628 </i>
   </energy>
  </scstep>
  <scstep>
   <time name="total">    0.97    0.98</time>
   <energy>
    <i name="e_fr_energy">   -172.71747307 </i>
    <i name="e_wo_entrp">   -172.71747307 </i>
    <i name="e_0_energy">   -172.71747307 </i>
   </energy>
  </scstep>
  <scstep>
   <time name="total">    0.99    1.00</time>
   <energy>
    <i name="e_fr_energy">   -172.71746724 </i>
    <i name="e_wo_entrp">   -172.71746724 </i>
    <i name="e_0_energy">   -172.71746724 </i>
   </energy>
  </scstep>
  <scstep>
   <time name="total">    0.99    1.01</time>
   <energy>
    <i name="e_fr_energy">   -172.71745246 </i>
    <i name="e_wo_entrp">   -172.71745246 </i>
    <i name="e_0_energy">   -172.71745246 </i>
   </energy>
  </scstep>
  <scstep>
   <time name="total">    1.00    1.02</time>
   <energy>
    <i name="e_fr_energy">   -172.71745032 </i>
    <i name="e_wo_entrp">   -172.71745032 </i>
    <i name="e_0_energy">   -172.71745032 </i>
   </energy>
  </scstep>
  <scstep>
   <time name="total">    1.00    1.02</time>
   <energy>
    <i name="e_fr_energy">   -172.71745756 </i>
    <i name="e_wo_entrp">   -172.71745756 </i>
    <i name="e_0_energy">   -172.71745756 </i>
   </energy>
  </scstep>
  <scstep>
   <time name="total">    1.75    1.26</time>
   <energy>
    <i name="e_fr_energy">     -0.48316323 </i>
    <i name="e_wo_entrp">     -0.48316323 </i>
    <i name="e_0_energy">     -0.48316323 </i>
   </energy>
  </scstep>
  <scstep>
   <time name="total">    1.69    1.25</time>
   <energy>
    <i name="e_fr_energy">     -0.48536729 </i>
    <i name="e_wo_entrp">     -0.48536729 </i>
    <i name="e_0_energy">     -0.48536729 </i>
   </energy>
  </scstep>
  <scstep>
   <time name="total">    1.70    1.26</time>
   <energy>
    <i name="e_fr_energy">     -0.48555528 </i>
    <i name="e_wo_entrp">     -0.48555528 </i>
    <i name="e_0_energy">     -0.48555528 </i>
   </energy>
  </scstep>
  <scstep>
   <time name="total">    1.71    1.27</time>
   <energy>
    <i name="e_fr_energy">     -0.48556387 </i>
    <i name="e_wo_entrp">     -0.48556387 </i>
    <i name="e_0_energy">     -0.48556387 </i>
   </energy>
  </scstep>
  <scstep>
   <time name="total">    1.71    1.27</time>
   <energy>
    <i name="e_fr_energy">     -0.48556417 </i>
    <i name="e_wo_entrp">     -0.48556417 </i>
    <i name="e_0_energy">     -0.48556417 </i>
   </energy>
  </scstep>
  <scstep>
   <time name="total">    1.68    1.24</time>
   <energy>
    <i name="e_fr_energy">     -0.48556419 </i>
    <i name="e_wo_entrp">     -0.48556419 </i>
    <i name="e_0_energy">     -0.48556419 </i>
   </energy>
  </scstep>
  <scstep>
   <time name="total">    1.64    1.20</time>
   <energy>
    <i name="e_fr_energy">     -0.48556419 </i>
    <i name="e_wo_entrp">     -0.48556419 </i>
    <i name="e_0_energy">     -0.48556419 </i>
   </energy>
  </scstep>
  <scstep>
   <time name="total">    1.63    1.19</time>
   <energy>
    <i name="e_fr_energy">     -0.48556419 </i>
    <i name="e_wo_entrp">     -0.48556419 </i>
    <i name="e_0_energy">     -0.48556419 </i>
   </energy>
  </scstep>
  <scstep>
   <time name="total">    1.62    1.18</time>
   <energy>
    <i name="e_fr_energy">     -0.48556419 </i>
    <i name="e_wo_entrp">     -0.48556419 </i>
    <i name="e_0_energy">     -0.48556419 </i>
   </energy>
  </scstep>
  <scstep>
   <time name="total">    1.70    1.25</time>
   <energy>
    <i name="e_fr_energy">     -0.48322024 </i>
    <i name="e_wo_entrp">     -0.48322024 </i>
    <i name="e_0_energy">     -0.48322024 </i>
   </energy>
  </scstep>
  <scstep>
   <time name="total">    1.69    1.25</time>
   <energy>
    <i name="e_fr_energy">     -0.48537762 </i>
    <i name="e_wo_entrp">     -0.48537762 </i>
    <i name="e_0_energy">     -0.48537762 </i>
   </energy>
  </scstep>
  <scstep>
   <time name="total">    1.90    1.29</time>
   <energy>
    <i name="e_fr_energy">     -0.48556558 </i>
    <i name="e_wo_entrp">     -0.48556558 </i>
    <i name="e_0_energy">     -0.48556558 </i>
   </energy>
  </scstep>
  <scstep>
   <time name="total">    1.71    1.26</time>
   <energy>
    <i name="e_fr_energy">     -0.48557418 </i>
    <i name="e_wo_entrp">     -0.48557418 </i>
    <i name="e_0_energy">     -0.48557418 </i>
   </energy>
  </scstep>
  <scstep>
   <time name="total">    1.71    1.27</time>
   <energy>
    <i name="e_fr_energy">     -0.48557448 </i>
    <i name="e_wo_entrp">     -0.48557448 </i>
    <i name="e_0_energy">     -0.48557448 </i>
   </energy>
  </scstep>
  <scstep>
   <time name="total">    1.68    1.23</time>
   <energy>
    <i name="e_fr_energy">     -0.48557450 </i>
    <i name="e_wo_entrp">     -0.48557450 </i>
    <i name="e_0_energy">     -0.48557450 </i>
   </energy>
  </scstep>
  <scstep>
   <time name="total">    1.64    1.20</time>
   <energy>
    <i name="e_fr_energy">     -0.48557451 </i>
    <i name="e_wo_entrp">     -0.48557451 </i>
    <i name="e_0_energy">     -0.48557451 </i>
   </energy>
  </scstep>
  <scstep>
   <time name="total">    1.63    1.18</time>
   <energy>
    <i name="e_fr_energy">     -0.48557451 </i>
    <i name="e_wo_entrp">     -0.48557451 </i>
    <i name="e_0_energy">     -0.48557451 </i>
   </energy>
  </scstep>
  <scstep>
   <time name="total">    1.61    1.17</time>
   <energy>
    <i name="e_fr_energy">     -0.48557451 </i>
    <i name="e_wo_entrp">     -0.48557451 </i>
    <i name="e_0_energy">     -0.48557451 </i>
   </energy>
  </scstep>
  <scstep>
   <time name="total">    1.69    1.25</time>
   <energy>
    <i name="e_fr_energy">     -0.48761128 </i>
    <i name="e_wo_entrp">     -0.48761128 </i>
    <i name="e_0_energy">     -0.48761128 </i>
   </energy>
  </scstep>
  <scstep>
   <time name="total">    1.68    1.23</time>
   <energy>
    <i name="e_fr_energy">     -0.48965653 </i>
    <i name="e_wo_entrp">     -0.48965653 </i>
    <i name="e_0_energy">     -0.48965653 </i>
   </energy>
  </scstep>
  <scstep>
   <time name="total">    1.69    1.25</time>
   <energy>
    <i name="e_fr_energy">     -0.48984760 </i>
    <i name="e_wo_entrp">     -0.48984760 </i>
    <i name="e_0_energy">     -0.48984760 </i>
   </energy>
  </scstep>
  <scstep>
   <time name="total">    1.71    1.26</time>
   <energy>
    <i name="e_fr_energy">     -0.48985653 </i>
    <i name="e_wo_entrp">     -0.48985653 </i>
    <i name="e_0_energy">     -0.48985653 </i>
   </energy>
  </scstep>
  <scstep>
   <time name="total">    1.71    1.26</time>
   <energy>
    <i name="e_fr_energy">     -0.48985684 </i>
    <i name="e_wo_entrp">     -0.48985684 </i>
    <i name="e_0_energy">     -0.48985684 </i>
   </energy>
  </scstep>
  <scstep>
   <time name="total">    1.67    1.23</time>
   <energy>
    <i name="e_fr_energy">     -0.48985686 </i>
    <i name="e_wo_entrp">     -0.48985686 </i>
    <i name="e_0_energy">     -0.48985686 </i>
   </energy>
  </scstep>
  <scstep>
   <time name="total">    1.86    1.21</time>
   <energy>
    <i name="e_fr_energy">     -0.48985686 </i>
    <i name="e_wo_entrp">     -0.48985686 </i>
    <i name="e_0_energy">     -0.48985686 </i>
   </energy>
  </scstep>
  <scstep>
   <time name="total">    1.60    1.15</time>
   <energy>
    <i name="e_fr_energy">     -0.48985686 </i>
    <i name="e_wo_entrp">     -0.48985686 </i>
    <i name="e_0_energy">     -0.48985686 </i>
   </energy>
  </scstep>
  <scstep>
   <time name="total">    1.59    1.15</time>
   <energy>
    <i name="e_fr_energy">     -0.48985686 </i>
    <i name="e_wo_entrp">     -0.48985686 </i>
    <i name="e_0_energy">     -0.48985686 </i>
   </energy>
  </scstep>
  <varray name="dielectric_ipa" >
   <v>       2.58974367       0.00000000       0.00000000 </v>
   <v>       0.00000000       2.58977723      -0.00033638 </v>
   <v>       0.00000000      -0.00033782       2.60380925 </v>
  </varray>
  <kpoints>
   <generation param="Gamma">
    <v type="int" name="divisions">       4        4        4 </v>
    <v name="usershift">      0.00000000       0.00000000       0.00000000 </v>
    <v name="genvec1">      0.25000000       0.00000000       0.00000000 </v>
    <v name="genvec2">      0.00000000       0.25000000       0.00000000 </v>
    <v name="genvec3">      0.00000000       0.00000000       0.25000000 </v>
    <v name="shift">      0.00000000       0.00000000       0.00000000 </v>
   </generation>
   <varray name="kpointlist" >
    <v>       0.00000000       0.00000000       0.00000000 </v>
    <v>       0.25000000       0.00000000       0.00000000 </v>
    <v>       0.00000000       0.25000000       0.00000000 </v>
    <v>       0.50000000       0.00000000       0.00000000 </v>
    <v>       0.00000000       0.50000000       0.00000000 </v>
    <v>       0.25000000       0.25000000       0.00000000 </v>
    <v>       0.50000000       0.25000000       0.00000000 </v>
    <v>       0.00000000       0.00000000       0.25000000 </v>
    <v>       0.25000000       0.00000000       0.25000000 </v>
    <v>       0.00000000       0.25000000       0.25000000 </v>
    <v>      -0.25000000       0.00000000       0.25000000 </v>
    <v>       0.00000000      -0.25000000       0.25000000 </v>
    <v>       0.50000000       0.00000000       0.25000000 </v>
    <v>       0.00000000       0.50000000       0.25000000 </v>
    <v>       0.25000000       0.25000000       0.25000000 </v>
    <v>       0.50000000       0.25000000       0.25000000 </v>
    <v>      -0.25000000      -0.25000000       0.25000000 </v>
    <v>       0.00000000       0.00000000       0.50000000 </v>
    <v>       0.25000000       0.00000000       0.50000000 </v>
    <v>       0.00000000       0.25000000       0.50000000 </v>
    <v>       0.50000000       0.00000000       0.50000000 </v>
    <v>       0.00000000       0.50000000       0.50000000 </v>
    <v>       0.25000000       0.25000000       0.50000000 </v>
    <v>       0.50000000       0.25000000       0.50000000 </v>
   </varray>
   <varray name="weights" >
    <v>       0.01562500 </v>
    <v>       0.06250000 </v>
    <v>       0.03125000 </v>
    <v>       0.03125000 </v>
    <v>       0.01562500 </v>
    <v>       0.06250000 </v>
    <v>       0.03125000 </v>
    <v>       0.03125000 </v>
    <v>       0.06250000 </v>
    <v>       0.03125000 </v>
    <v>       0.06250000 </v>
    <v>       0.03125000 </v>
    <v>       0.06250000 </v>
    <v>       0.03125000 </v>
    <v>       0.06250000 </v>
    <v>       0.06250000 </v>
    <v>       0.06250000 </v>
    <v>       0.01562500 </v>
    <v>       0.06250000 </v>
    <v>       0.03125000 </v>
    <v>       0.03125000 </v>
    <v>       0.01562500 </v>
    <v>       0.06250000 </v>
    <v>       0.03125000 </v>
   </varray>
  </kpoints>
  <scstep>
   <time name="total">    1.69    1.25</time>
   <energy>
    <i name="e_fr_energy">     -0.48316323 </i>
    <i name="e_wo_entrp">     -0.48316323 </i>
    <i name="e_0_energy">     -0.48316323 </i>
   </energy>
  </scstep>
  <scstep>
   <time name="total">    1.75    1.29</time>
   <energy>
    <i name="e_fr_energy">     -0.48536729 </i>
    <i name="e_wo_entrp">     -0.48536729 </i>
    <i name="e_0_energy">     -0.48536729 </i>
   </energy>
  </scstep>
  <scstep>
   <time name="total">    1.76    1.30</time>
   <energy>
    <i name="e_fr_energy">     -0.46606286 </i>
    <i name="e_wo_entrp">     -0.46606286 </i>
    <i name="e_0_energy">     -0.46606286 </i>
   </energy>
  </scstep>
  <scstep>
   <time name="total">    1.77    1.31</time>
   <energy>
    <i name="e_fr_energy">     -0.47730964 </i>
    <i name="e_wo_entrp">     -0.47730964 </i>
    <i name="e_0_energy">     -0.47730964 </i>
   </energy>
  </scstep>
  <scstep>
   <time name="total">    1.76    1.30</time>
   <energy>
    <i name="e_fr_energy">     -0.49521927 </i>
    <i name="e_wo_entrp">     -0.49521927 </i>
    <i name="e_0_energy">     -0.49521927 </i>
   </energy>
  </scstep>
  <scstep>
   <time name="total">    1.75    1.29</time>
   <energy>
    <i name="e_fr_energy">     -0.49815421 </i>
    <i name="e_wo_entrp">     -0.49815421 </i>
    <i name="e_0_energy">     -0.49815421 </i>
   </energy>
  </scstep>
  <scstep>
   <time name="total">    1.78    1.32</time>
   <energy>
    <i name="e_fr_energy">     -0.49839506 </i>
    <i name="e_wo_entrp">     -0.49839506 </i>
    <i name="e_0_energy">     -0.49839506 </i>
   </energy>
  </scstep>
  <scstep>
   <time name="total">    1.78    1.32</time>
   <energy>
    <i name="e_fr_energy">     -0.49861881 </i>
    <i name="e_wo_entrp">     -0.49861881 </i>
    <i name="e_0_energy">     -0.49861881 </i>
   </energy>
  </scstep>
  <scstep>
   <time name="total">    1.80    1.33</time>
   <energy>
    <i name="e_fr_energy">     -0.49868398 </i>
    <i name="e_wo_entrp">     -0.49868398 </i>
    <i name="e_0_energy">     -0.49868398 </i>
   </energy>
  </scstep>
  <scstep>
   <time name="total">    1.81    1.35</time>
   <energy>
    <i name="e_fr_energy">     -0.49868023 </i>
    <i name="e_wo_entrp">     -0.49868023 </i>
    <i name="e_0_energy">     -0.49868023 </i>
   </energy>
  </scstep>
  <scstep>
   <time name="total">    1.83    1.37</time>
   <energy>
    <i name="e_fr_energy">     -0.49868474 </i>
    <i name="e_wo_entrp">     -0.49868474 </i>
    <i name="e_0_energy">     -0.49868474 </i>
   </energy>
  </scstep>
  <scstep>
   <time name="total">    1.80    1.34</time>
   <energy>
    <i name="e_fr_energy">     -0.49868386 </i>
    <i name="e_wo_entrp">     -0.49868386 </i>
    <i name="e_0_energy">     -0.49868386 </i>
   </energy>
  </scstep>
  <scstep>
   <time name="total">    1.80    1.34</time>
   <energy>
    <i name="e_fr_energy">     -0.49868462 </i>
    <i name="e_wo_entrp">     -0.49868462 </i>
    <i name="e_0_energy">     -0.49868462 </i>
   </energy>
  </scstep>
  <scstep>
   <time name="total">    1.82    1.36</time>
   <energy>
    <i name="e_fr_energy">     -0.49868419 </i>
    <i name="e_wo_entrp">     -0.49868419 </i>
    <i name="e_0_energy">     -0.49868419 </i>
   </energy>
  </scstep>
  <kpoints>
   <generation param="Gamma">
    <v type="int" name="divisions">       4        4        4 </v>
    <v name="usershift">      0.00000000       0.00000000       0.00000000 </v>
    <v name="genvec1">      0.25000000       0.00000000       0.00000000 </v>
    <v name="genvec2">      0.00000000       0.25000000       0.00000000 </v>
    <v name="genvec3">      0.00000000       0.00000000       0.25000000 </v>
    <v name="shift">      0.00000000       0.00000000       0.00000000 </v>
   </generation>
   <varray name="kpointlist" >
    <v>       0.00000000       0.00000000       0.00000000 </v>
    <v>       0.25000000       0.00000000       0.00000000 </v>
    <v>       0.00000000       0.25000000       0.00000000 </v>
    <v>      -0.25000000       0.25000000       0.00000000 </v>
    <v>       0.50000000       0.00000000       0.00000000 </v>
    <v>       0.00000000       0.50000000       0.00000000 </v>
    <v>       0.50000000       0.50000000       0.00000000 </v>
    <v>       0.25000000       0.25000000       0.00000000 </v>
    <v>      -0.25000000       0.50000000       0.00000000 </v>
    <v>       0.50000000       0.25000000       0.00000000 </v>
    <v>       0.00000000       0.00000000       0.25000000 </v>
    <v>       0.25000000       0.00000000       0.25000000 </v>
    <v>       0.00000000       0.25000000       0.25000000 </v>
    <v>      -0.25000000       0.25000000       0.25000000 </v>
    <v>      -0.25000000       0.00000000       0.25000000 </v>
    <v>       0.00000000      -0.25000000       0.25000000 </v>
    <v>       0.25000000      -0.25000000       0.25000000 </v>
    <v>       0.50000000       0.00000000       0.25000000 </v>
    <v>       0.00000000       0.50000000       0.25000000 </v>
    <v>       0.50000000       0.50000000       0.25000000 </v>
    <v>       0.25000000       0.25000000       0.25000000 </v>
    <v>      -0.25000000       0.50000000       0.25000000 </v>
    <v>       0.50000000       0.25000000       0.25000000 </v>
    <v>      -0.25000000      -0.25000000       0.25000000 </v>
    <v>       0.25000000       0.50000000       0.25000000 </v>
    <v>       0.50000000      -0.25000000       0.25000000 </v>
    <v>       0.00000000       0.00000000       0.50000000 </v>
    <v>       0.25000000       0.00000000       0.50000000 </v>
    <v>       0.00000000       0.25000000       0.50000000 </v>
    <v>      -0.25000000       0.25000000       0.50000000 </v>
    <v>       0.50000000       0.00000000       0.50000000 </v>
    <v>       0.00000000       0.50000000       0.50000000 </v>
    <v>       0.50000000       0.50000000       0.50000000 </v>
    <v>       0.25000000       0.25000000       0.50000000 </v>
    <v>      -0.25000000       0.50000000       0.50000000 </v>
    <v>       0.50000000       0.25000000       0.50000000 </v>
   </varray>
   <varray name="weights" >
    <v>       0.01562500 </v>
    <v>       0.03125000 </v>
    <v>       0.03125000 </v>
    <v>       0.03125000 </v>
    <v>       0.01562500 </v>
    <v>       0.01562500 </v>
    <v>       0.01562500 </v>
    <v>       0.03125000 </v>
    <v>       0.03125000 </v>
    <v>       0.03125000 </v>
    <v>       0.03125000 </v>
    <v>       0.03125000 </v>
    <v>       0.03125000 </v>
    <v>       0.03125000 </v>
    <v>       0.03125000 </v>
    <v>       0.03125000 </v>
    <v>       0.03125000 </v>
    <v>       0.03125000 </v>
    <v>       0.03125000 </v>
    <v>       0.03125000 </v>
    <v>       0.03125000 </v>
    <v>       0.03125000 </v>
    <v>       0.03125000 </v>
    <v>       0.03125000 </v>
    <v>       0.03125000 </v>
    <v>       0.03125000 </v>
    <v>       0.01562500 </v>
    <v>       0.03125000 </v>
    <v>       0.03125000 </v>
    <v>       0.03125000 </v>
    <v>       0.01562500 </v>
    <v>       0.01562500 </v>
    <v>       0.01562500 </v>
    <v>       0.03125000 </v>
    <v>       0.03125000 </v>
    <v>       0.03125000 </v>
   </varray>
  </kpoints>
  <scstep>
   <time name="total">    2.25    1.81</time>
   <energy>
    <i name="e_fr_energy">     -0.48322028 </i>
    <i name="e_wo_entrp">     -0.48322028 </i>
    <i name="e_0_energy">     -0.48322028 </i>
   </energy>
  </scstep>
  <scstep>
   <time name="total">    2.34    1.89</time>
   <energy>
    <i name="e_fr_energy">     -0.48537764 </i>
    <i name="e_wo_entrp">     -0.48537764 </i>
    <i name="e_0_energy">     -0.48537764 </i>
   </energy>
  </scstep>
  <scstep>
   <time name="total">    2.34    1.89</time>
   <energy>
    <i name="e_fr_energy">     -0.46450130 </i>
    <i name="e_wo_entrp">     -0.46450130 </i>
    <i name="e_0_energy">     -0.46450130 </i>
   </energy>
  </scstep>
  <scstep>
   <time name="total">    2.35    1.90</time>
   <energy>
    <i name="e_fr_energy">     -0.47526121 </i>
    <i name="e_wo_entrp">     -0.47526121 </i>
    <i name="e_0_energy">     -0.47526121 </i>
   </energy>
  </scstep>
  <scstep>
   <time name="total">    2.33    1.88</time>
   <energy>
    <i name="e_fr_energy">     -0.49291106 </i>
    <i name="e_wo_entrp">     -0.49291106 </i>
    <i name="e_0_energy">     -0.49291106 </i>
   </energy>
  </scstep>
  <scstep>
   <time name="total">    2.36    1.92</time>
   <energy>
    <i name="e_fr_energy">     -0.49585681 </i>
    <i name="e_wo_entrp">     -0.49585681 </i>
    <i name="e_0_energy">     -0.49585681 </i>
   </energy>
  </scstep>
  <scstep>
   <time name="total">    2.36    1.91</time>
   <energy>
    <i name="e_fr_energy">     -0.49612858 </i>
    <i name="e_wo_entrp">     -0.49612858 </i>
    <i name="e_0_energy">     -0.49612858 </i>
   </energy>
  </scstep>
  <scstep>
   <time name="total">    2.37    1.92</time>
   <energy>
    <i name="e_fr_energy">     -0.49636747 </i>
    <i name="e_wo_entrp">     -0.49636747 </i>
    <i name="e_0_energy">     -0.49636747 </i>
   </energy>
  </scstep>
  <scstep>
   <time name="total">    2.39    1.93</time>
   <energy>
    <i name="e_fr_energy">     -0.49643271 </i>
    <i name="e_wo_entrp">     -0.49643271 </i>
    <i name="e_0_energy">     -0.49643271 </i>
   </energy>
  </scstep>
  <scstep>
   <time name="total">    2.41    1.96</time>
   <energy>
    <i name="e_fr_energy">     -0.49642823 </i>
    <i name="e_wo_entrp">     -0.49642823 </i>
    <i name="e_0_energy">     -0.49642823 </i>
   </energy>
  </scstep>
  <scstep>
   <time name="total">    2.44    1.99</time>
   <energy>
    <i name="e_fr_energy">     -0.49642857 </i>
    <i name="e_wo_entrp">     -0.49642857 </i>
    <i name="e_0_energy">     -0.49642857 </i>
   </energy>
  </scstep>
  <scstep>
   <time name="total">    2.42    1.97</time>
   <energy>
    <i name="e_fr_energy">     -0.49641708 </i>
    <i name="e_wo_entrp">     -0.49641708 </i>
    <i name="e_0_energy">     -0.49641708 </i>
   </energy>
  </scstep>
  <scstep>
   <time name="total">    2.42    1.97</time>
   <energy>
    <i name="e_fr_energy">     -0.49641849 </i>
    <i name="e_wo_entrp">     -0.49641849 </i>
    <i name="e_0_energy">     -0.49641849 </i>
   </energy>
  </scstep>
  <scstep>
   <time name="total">    2.44    1.99</time>
   <energy>
    <i name="e_fr_energy">     -0.49641781 </i>
    <i name="e_wo_entrp">     -0.49641781 </i>
    <i name="e_0_energy">     -0.49641781 </i>
   </energy>
  </scstep>
  <kpoints>
   <generation param="Gamma">
    <v type="int" name="divisions">       4        4        4 </v>
    <v name="usershift">      0.00000000       0.00000000       0.00000000 </v>
    <v name="genvec1">      0.25000000       0.00000000       0.00000000 </v>
    <v name="genvec2">      0.00000000       0.25000000       0.00000000 </v>
    <v name="genvec3">      0.00000000       0.00000000       0.25000000 </v>
    <v name="shift">      0.00000000       0.00000000       0.00000000 </v>
   </generation>
   <varray name="kpointlist" >
    <v>       0.00000000       0.00000000       0.00000000 </v>
    <v>       0.25000000       0.00000000       0.00000000 </v>
    <v>       0.00000000       0.25000000       0.00000000 </v>
    <v>      -0.25000000       0.25000000       0.00000000 </v>
    <v>       0.50000000       0.00000000       0.00000000 </v>
    <v>       0.00000000       0.50000000       0.00000000 </v>
    <v>       0.50000000       0.50000000       0.00000000 </v>
    <v>       0.25000000       0.25000000       0.00000000 </v>
    <v>      -0.25000000       0.50000000       0.00000000 </v>
    <v>       0.50000000       0.25000000       0.00000000 </v>
    <v>       0.00000000       0.00000000       0.25000000 </v>
    <v>       0.25000000       0.00000000       0.25000000 </v>
    <v>       0.00000000       0.25000000       0.25000000 </v>
    <v>      -0.25000000       0.25000000       0.25000000 </v>
    <v>      -0.25000000       0.00000000       0.25000000 </v>
    <v>       0.00000000      -0.25000000       0.25000000 </v>
    <v>       0.25000000      -0.25000000       0.25000000 </v>
    <v>       0.50000000       0.00000000       0.25000000 </v>
    <v>       0.00000000       0.50000000       0.25000000 </v>
    <v>       0.50000000       0.50000000       0.25000000 </v>
    <v>       0.25000000       0.25000000       0.25000000 </v>
    <v>      -0.25000000       0.50000000       0.25000000 </v>
    <v>       0.50000000       0.25000000       0.25000000 </v>
    <v>      -0.25000000      -0.25000000       0.25000000 </v>
    <v>       0.25000000       0.50000000       0.25000000 </v>
    <v>       0.50000000      -0.25000000       0.25000000 </v>
    <v>       0.00000000       0.00000000       0.50000000 </v>
    <v>       0.25000000       0.00000000       0.50000000 </v>
    <v>       0.00000000       0.25000000       0.50000000 </v>
    <v>      -0.25000000       0.25000000       0.50000000 </v>
    <v>       0.50000000       0.00000000       0.50000000 </v>
    <v>       0.00000000       0.50000000       0.50000000 </v>
    <v>       0.50000000       0.50000000       0.50000000 </v>
    <v>       0.25000000       0.25000000       0.50000000 </v>
    <v>      -0.25000000       0.50000000       0.50000000 </v>
    <v>       0.50000000       0.25000000       0.50000000 </v>
   </varray>
   <varray name="weights" >
    <v>       0.01562500 </v>
    <v>       0.03125000 </v>
    <v>       0.03125000 </v>
    <v>       0.03125000 </v>
    <v>       0.01562500 </v>
    <v>       0.01562500 </v>
    <v>       0.01562500 </v>
    <v>       0.03125000 </v>
    <v>       0.03125000 </v>
    <v>       0.03125000 </v>
    <v>       0.03125000 </v>
    <v>       0.03125000 </v>
    <v>       0.03125000 </v>
    <v>       0.03125000 </v>
    <v>       0.03125000 </v>
    <v>       0.03125000 </v>
    <v>       0.03125000 </v>
    <v>       0.03125000 </v>
    <v>       0.03125000 </v>
    <v>       0.03125000 </v>
    <v>       0.03125000 </v>
    <v>       0.03125000 </v>
    <v>       0.03125000 </v>
    <v>       0.03125000 </v>
    <v>       0.03125000 </v>
    <v>       0.03125000 </v>
    <v>       0.01562500 </v>
    <v>       0.03125000 </v>
    <v>       0.03125000 </v>
    <v>       0.03125000 </v>
    <v>       0.01562500 </v>
    <v>       0.01562500 </v>
    <v>       0.01562500 </v>
    <v>       0.03125000 </v>
    <v>       0.03125000 </v>
    <v>       0.03125000 </v>
   </varray>
  </kpoints>
  <scstep>
   <time name="total">    2.25    1.81</time>
   <energy>
    <i name="e_fr_energy">     -0.48761129 </i>
    <i name="e_wo_entrp">     -0.48761129 </i>
    <i name="e_0_energy">     -0.48761129 </i>
   </energy>
  </scstep>
  <scstep>
   <time name="total">    2.31    1.86</time>
   <energy>
    <i name="e_fr_energy">     -0.48965652 </i>
    <i name="e_wo_entrp">     -0.48965652 </i>
    <i name="e_0_energy">     -0.48965652 </i>
   </energy>
  </scstep>
  <scstep>
   <time name="total">    2.50    1.90</time>
   <energy>
    <i name="e_fr_energy">     -0.47439613 </i>
    <i name="e_wo_entrp">     -0.47439613 </i>
    <i name="e_0_energy">     -0.47439613 </i>
   </energy>
  </scstep>
  <scstep>
   <time name="total">    2.35    1.89</time>
   <energy>
    <i name="e_fr_energy">     -0.48763729 </i>
    <i name="e_wo_entrp">     -0.48763729 </i>
    <i name="e_0_energy">     -0.48763729 </i>
   </energy>
  </scstep>
  <scstep>
   <time name="total">    2.35    1.90</time>
   <energy>
    <i name="e_fr_energy">     -0.50387998 </i>
    <i name="e_wo_entrp">     -0.50387998 </i>
    <i name="e_0_energy">     -0.50387998 </i>
   </energy>
  </scstep>
  <scstep>
   <time name="total">    2.29    1.84</time>
   <energy>
    <i name="e_fr_energy">     -0.50671668 </i>
    <i name="e_wo_entrp">     -0.50671668 </i>
    <i name="e_0_energy">     -0.50671668 </i>
   </energy>
  </scstep>
  <scstep>
   <time name="total">    2.82    1.98</time>
   <energy>
    <i name="e_fr_energy">     -0.50696242 </i>
    <i name="e_wo_entrp">     -0.50696242 </i>
    <i name="e_0_energy">     -0.50696242 </i>
   </energy>
  </scstep>
  <scstep>
   <time name="total">    2.74    1.97</time>
   <energy>
    <i name="e_fr_energy">     -0.50722785 </i>
    <i name="e_wo_entrp">     -0.50722785 </i>
    <i name="e_0_energy">     -0.50722785 </i>
   </energy>
  </scstep>
  <scstep>
   <time name="total">    2.38    1.93</time>
   <energy>
    <i name="e_fr_energy">     -0.50725058 </i>
    <i name="e_wo_entrp">     -0.50725058 </i>
    <i name="e_0_energy">     -0.50725058 </i>
   </energy>
  </scstep>
  <scstep>
   <time name="total">    2.49    1.96</time>
   <energy>
    <i name="e_fr_energy">     -0.50725246 </i>
    <i name="e_wo_entrp">     -0.50725246 </i>
    <i name="e_0_energy">     -0.50725246 </i>
   </energy>
  </scstep>
  <scstep>
   <time name="total">    2.42    1.97</time>
   <energy>
    <i name="e_fr_energy">     -0.50725122 </i>
    <i name="e_wo_entrp">     -0.50725122 </i>
    <i name="e_0_energy">     -0.50725122 </i>
   </energy>
  </scstep>
  <scstep>
   <time name="total">    2.42    1.95</time>
   <energy>
    <i name="e_fr_energy">     -0.50725138 </i>
    <i name="e_wo_entrp">     -0.50725138 </i>
    <i name="e_0_energy">     -0.50725138 </i>
   </energy>
  </scstep>
  <scstep>
   <time name="total">    2.43    1.97</time>
   <energy>
    <i name="e_fr_energy">     -0.50725135 </i>
    <i name="e_wo_entrp">     -0.50725135 </i>
    <i name="e_0_energy">     -0.50725135 </i>
   </energy>
  </scstep>
  <scstep>
   <time name="total">    2.42    1.96</time>
   <energy>
    <i name="e_fr_energy">     -0.50725134 </i>
    <i name="e_wo_entrp">     -0.50725134 </i>
    <i name="e_0_energy">     -0.50725134 </i>
   </energy>
  </scstep>
  <kpoints>
   <generation param="Gamma">
    <v type="int" name="divisions">       4        4        4 </v>
    <v name="usershift">      0.00000000       0.00000000       0.00000000 </v>
    <v name="genvec1">      0.25000000       0.00000000       0.00000000 </v>
    <v name="genvec2">      0.00000000       0.25000000       0.00000000 </v>
    <v name="genvec3">      0.00000000       0.00000000       0.25000000 </v>
    <v name="shift">      0.00000000       0.00000000       0.00000000 </v>
   </generation>
   <varray name="kpointlist" >
    <v>       0.00000000       0.00000000       0.00000000 </v>
    <v>       0.25000000       0.00000000       0.00000000 </v>
    <v>       0.00000000       0.25000000       0.00000000 </v>
    <v>       0.50000000       0.00000000       0.00000000 </v>
    <v>       0.00000000       0.50000000       0.00000000 </v>
    <v>       0.25000000       0.25000000       0.00000000 </v>
    <v>       0.50000000       0.25000000       0.00000000 </v>
    <v>       0.00000000       0.00000000       0.25000000 </v>
    <v>       0.25000000       0.00000000       0.25000000 </v>
    <v>       0.00000000       0.25000000       0.25000000 </v>
    <v>      -0.25000000       0.00000000       0.25000000 </v>
    <v>       0.00000000      -0.25000000       0.25000000 </v>
    <v>       0.50000000       0.00000000       0.25000000 </v>
    <v>       0.00000000       0.50000000       0.25000000 </v>
    <v>       0.25000000       0.25000000       0.25000000 </v>
    <v>       0.50000000       0.25000000       0.25000000 </v>
    <v>      -0.25000000      -0.25000000       0.25000000 </v>
    <v>       0.00000000       0.00000000       0.50000000 </v>
    <v>       0.25000000       0.00000000       0.50000000 </v>
    <v>       0.00000000       0.25000000       0.50000000 </v>
    <v>       0.50000000       0.00000000       0.50000000 </v>
    <v>       0.00000000       0.50000000       0.50000000 </v>
    <v>       0.25000000       0.25000000       0.50000000 </v>
    <v>       0.50000000       0.25000000       0.50000000 </v>
   </varray>
   <varray name="weights" >
    <v>       0.01562500 </v>
    <v>       0.06250000 </v>
    <v>       0.03125000 </v>
    <v>       0.03125000 </v>
    <v>       0.01562500 </v>
    <v>       0.06250000 </v>
    <v>       0.03125000 </v>
    <v>       0.03125000 </v>
    <v>       0.06250000 </v>
    <v>       0.03125000 </v>
    <v>       0.06250000 </v>
    <v>       0.03125000 </v>
    <v>       0.06250000 </v>
    <v>       0.03125000 </v>
    <v>       0.06250000 </v>
    <v>       0.06250000 </v>
    <v>       0.06250000 </v>
    <v>       0.01562500 </v>
    <v>       0.06250000 </v>
    <v>       0.03125000 </v>
    <v>       0.03125000 </v>
    <v>       0.01562500 </v>
    <v>       0.06250000 </v>
    <v>       0.03125000 </v>
   </varray>
  </kpoints>
  <varray name="dielectric_dft" >
   <v>       2.48086053       0.00000000      -0.00000000 </v>
   <v>       0.00000000       2.48078243      -0.00014598 </v>
   <v>       0.00000000      -0.00014869       2.51334751 </v>
  </varray>
  <varray name="epsilon" >
   <v>       2.48086053       0.00000000      -0.00000000 </v>
   <v>       0.00000000       2.48078243      -0.00014598 </v>
   <v>       0.00000000      -0.00014869       2.51334751 </v>
  </varray>
  <kpoints>
   <generation param="Gamma">
    <v type="int" name="divisions">       4        4        4 </v>
    <v name="usershift">      0.00000000       0.00000000       0.00000000 </v>
    <v name="genvec1">      0.25000000       0.00000000       0.00000000 </v>
    <v name="genvec2">      0.00000000       0.25000000       0.00000000 </v>
    <v name="genvec3">      0.00000000       0.00000000       0.25000000 </v>
    <v name="shift">      0.00000000       0.00000000       0.00000000 </v>
   </generation>
   <varray name="kpointlist" >
    <v>       0.00000000       0.00000000       0.00000000 </v>
    <v>       0.25000000       0.00000000       0.00000000 </v>
    <v>       0.00000000       0.25000000       0.00000000 </v>
    <v>       0.50000000       0.00000000       0.00000000 </v>
    <v>       0.00000000       0.50000000       0.00000000 </v>
    <v>       0.25000000       0.25000000       0.00000000 </v>
    <v>       0.50000000       0.25000000       0.00000000 </v>
    <v>       0.00000000       0.00000000       0.25000000 </v>
    <v>       0.25000000       0.00000000       0.25000000 </v>
    <v>       0.00000000       0.25000000       0.25000000 </v>
    <v>      -0.25000000       0.00000000       0.25000000 </v>
    <v>       0.00000000      -0.25000000       0.25000000 </v>
    <v>       0.50000000       0.00000000       0.25000000 </v>
    <v>       0.00000000       0.50000000       0.25000000 </v>
    <v>       0.25000000       0.25000000       0.25000000 </v>
    <v>       0.50000000       0.25000000       0.25000000 </v>
    <v>      -0.25000000      -0.25000000       0.25000000 </v>
    <v>       0.00000000       0.00000000       0.50000000 </v>
    <v>       0.25000000       0.00000000       0.50000000 </v>
    <v>       0.00000000       0.25000000       0.50000000 </v>
    <v>       0.50000000       0.00000000       0.50000000 </v>
    <v>       0.00000000       0.50000000       0.50000000 </v>
    <v>       0.25000000       0.25000000       0.50000000 </v>
    <v>       0.50000000       0.25000000       0.50000000 </v>
   </varray>
   <varray name="weights" >
    <v>       0.01562500 </v>
    <v>       0.06250000 </v>
    <v>       0.03125000 </v>
    <v>       0.03125000 </v>
    <v>       0.01562500 </v>
    <v>       0.06250000 </v>
    <v>       0.03125000 </v>
    <v>       0.03125000 </v>
    <v>       0.06250000 </v>
    <v>       0.03125000 </v>
    <v>       0.06250000 </v>
    <v>       0.03125000 </v>
    <v>       0.06250000 </v>
    <v>       0.03125000 </v>
    <v>       0.06250000 </v>
    <v>       0.06250000 </v>
    <v>       0.06250000 </v>
    <v>       0.01562500 </v>
    <v>       0.06250000 </v>
    <v>       0.03125000 </v>
    <v>       0.03125000 </v>
    <v>       0.01562500 </v>
    <v>       0.06250000 </v>
    <v>       0.03125000 </v>
   </varray>
  </kpoints>
  <array name="born_charges" >
   <dimension dim="1">ion</dimension>
   <set>
    <v>       2.98092538       0.00000000      -0.00000000 </v>
    <v>       0.00000000       3.62146448      -0.32167007 </v>
    <v>       0.00000000       0.27814864       3.42519502 </v>
   </set>
   <set>
    <v>       3.46018220       0.27689393       0.27809235 </v>
    <v>       0.27694404       3.14017403       0.16075215 </v>
    <v>      -0.24088008      -0.13874053       3.42544262 </v>
   </set>
   <set>
    <v>       3.46018220      -0.27689393      -0.27809235 </v>
    <v>      -0.27694404       3.14017403       0.16075215 </v>
    <v>       0.24088008      -0.13874053       3.42544262 </v>
   </set>
   <set>
    <v>      -1.31092448      -0.49336814      -0.31018076 </v>
    <v>      -0.43591785      -1.98933225      -0.67915927 </v>
    <v>      -0.24375828      -0.72158654      -1.71307531 </v>
   </set>
   <set>
    <v>      -2.22210989      -0.08977783       0.74241598 </v>
    <v>      -0.03241673      -1.07805805       0.07068715 </v>
    <v>       0.74617474       0.14977779      -1.71195517 </v>
   </set>
   <set>
    <v>      -1.41761052       0.49778174      -0.43305018 </v>
    <v>       0.55456152      -1.88351597       0.60855501 </v>
    <v>      -0.50344744       0.57147496      -1.71300964 </v>
   </set>
   <set>
    <v>      -1.31092448       0.49336814       0.31018076 </v>
    <v>       0.43591785      -1.98933225      -0.67915927 </v>
    <v>       0.24375828      -0.72158654      -1.71307531 </v>
   </set>
   <set>
    <v>      -2.22210989       0.08977783      -0.74241598 </v>
    <v>       0.03241673      -1.07805805       0.07068715 </v>
    <v>      -0.74617474       0.14977779      -1.71195517 </v>
   </set>
   <set>
    <v>      -1.41761052      -0.49778174       0.43305018 </v>
    <v>      -0.55456152      -1.88351597       0.60855501 </v>
    <v>       0.50344744       0.57147496      -1.71300964 </v>
   </set>
  </array>
  <time name="totalsc">  316.28  189.28</time>
  <eigenvalues>
   <array>
    <dimension dim="1">band</dimension>
    <dimension dim="2">kpoint</dimension>
    <dimension dim="3">spin</dimension>
    <field>eigene</field>
    <field>occ</field>
    <set>
     <set comment="spin 1">
      <set comment="kpoint 1">
       <r>  -18.1719    1.0000 </r>
       <r>  -16.6208    1.0000 </r>
       <r>  -16.6193    1.0000 </r>
       <r>  -15.9517    1.0000 </r>
       <r>  -15.9432    1.0000 </r>
       <r>  -15.9413    1.0000 </r>
       <r>   -6.8802    1.0000 </r>
       <r>   -6.8777    1.0000 </r>
       <r>   -4.1465    1.0000 </r>
       <r>   -4.0639    1.0000 </r>
       <r>   -3.9117    1.0000 </r>
       <r>   -3.9107    1.0000 </r>
       <r>   -1.6871    1.0000 </r>
       <r>   -1.6842    1.0000 </r>
       <r>   -1.3748    1.0000 </r>
       <r>   -1.1506    1.0000 </r>
       <r>   -0.1559    1.0000 </r>
       <r>   -0.1550    1.0000 </r>
       <r>   -0.0980    1.0000 </r>
       <r>    0.2595    1.0000 </r>
       <r>    0.2632    1.0000 </r>
       <r>    0.4586    1.0000 </r>
       <r>    1.0033    1.0000 </r>
       <r>    1.0051    1.0000 </r>
       <r>    7.3235    0.0000 </r>
       <r>   10.6073    0.0000 </r>
       <r>   10.6097    0.0000 </r>
       <r>   11.2349    0.0000 </r>
       <r>   11.2383    0.0000 </r>
      </set>
      <set comment="kpoint 2">
       <r>  -17.9879    1.0000 </r>
       <r>  -16.8197    1.0000 </r>
       <r>  -16.5939    1.0000 </r>
       <r>  -16.0188    1.0000 </r>
       <r>  -15.9757    1.0000 </r>
       <r>  -15.9420    1.0000 </r>
       <r>   -6.9574    1.0000 </r>
       <r>   -6.5089    1.0000 </r>
       <r>   -4.2172    1.0000 </r>
       <r>   -4.1540    1.0000 </r>
       <r>   -4.0326    1.0000 </r>
       <r>   -3.6195    1.0000 </r>
       <r>   -1.8732    1.0000 </r>
       <r>   -1.5562    1.0000 </r>
       <r>   -1.3477    1.0000 </r>
       <r>   -0.8969    1.0000 </r>
       <r>   -0.6968    1.0000 </r>
       <r>   -0.2395    1.0000 </r>
       <r>   -0.1599    1.0000 </r>
       <r>    0.1783    1.0000 </r>
       <r>    0.2774    1.0000 </r>
       <r>    0.4211    1.0000 </r>
       <r>    1.0536    1.0000 </r>
       <r>    1.1419    1.0000 </r>
       <r>    8.2332    0.0000 </r>
       <r>   10.6700    0.0000 </r>
       <r>   10.7193    0.0000 </r>
       <r>   11.2068    0.0000 </r>
       <r>   11.4822    0.0000 </r>
      </set>
      <set comment="kpoint 3">
       <r>  -17.9880    1.0000 </r>
       <r>  -16.8197    1.0000 </r>
       <r>  -16.5932    1.0000 </r>
       <r>  -16.0190    1.0000 </r>
       <r>  -15.9757    1.0000 </r>
       <r>  -15.9425    1.0000 </r>
       <r>   -6.9560    1.0000 </r>
       <r>   -6.5097    1.0000 </r>
       <r>   -4.2184    1.0000 </r>
       <r>   -4.1546    1.0000 </r>
       <r>   -4.0327    1.0000 </r>
       <r>   -3.6177    1.0000 </r>
       <r>   -1.8721    1.0000 </r>
       <r>   -1.5576    1.0000 </r>
       <r>   -1.3477    1.0000 </r>
       <r>   -0.8968    1.0000 </r>
       <r>   -0.6980    1.0000 </r>
       <r>   -0.2385    1.0000 </r>
       <r>   -0.1603    1.0000 </r>
       <r>    0.1813    1.0000 </r>
       <r>    0.2759    1.0000 </r>
       <r>    0.4208    1.0000 </r>
       <r>    1.0534    1.0000 </r>
       <r>    1.1410    1.0000 </r>
       <r>    8.2326    0.0000 </r>
       <r>   10.6690    0.0000 </r>
       <r>   10.7214    0.0000 </r>
       <r>   11.2083    0.0000 </r>
       <r>   11.4836    0.0000 </r>
      </set>
      <set comment="kpoint 4">
       <r>  -17.6647    1.0000 </r>
       <r>  -17.1825    1.0000 </r>
       <r>  -16.5649    1.0000 </r>
       <r>  -16.0448    1.0000 </r>
       <r>  -16.0015    1.0000 </r>
       <r>  -15.9672    1.0000 </r>
       <r>   -7.0309    1.0000 </r>
       <r>   -6.0444    1.0000 </r>
       <r>   -4.5551    1.0000 </r>
       <r>   -4.0954    1.0000 </r>
       <r>   -4.0895    1.0000 </r>
       <r>   -3.2825    1.0000 </r>
       <r>   -1.8239    1.0000 </r>
       <r>   -1.6231    1.0000 </r>
       <r>   -1.4348    1.0000 </r>
       <r>   -1.0005    1.0000 </r>
       <r>   -0.7919    1.0000 </r>
       <r>   -0.4800    1.0000 </r>
       <r>   -0.2874    1.0000 </r>
       <r>    0.1946    1.0000 </r>
       <r>    0.2819    1.0000 </r>
       <r>    0.5598    1.0000 </r>
       <r>    1.0154    1.0000 </r>
       <r>    1.2414    1.0000 </r>
       <r>    9.6363    0.0000 </r>
       <r>   10.3711    0.0000 </r>
       <r>   10.9663    0.0000 </r>
       <r>   10.9870    0.0000 </r>
       <r>   11.9993    0.0000 </r>
      </set>
      <set comment="kpoint 5">
       <r>  -17.6655    1.0000 </r>
       <r>  -17.1810    1.0000 </r>
       <r>  -16.5647    1.0000 </r>
       <r>  -16.0458    1.0000 </r>
       <r>  -15.9992    1.0000 </r>
       <r>  -15.9696    1.0000 </r>
       <r>   -7.0299    1.0000 </r>
       <r>   -6.0430    1.0000 </r>
       <r>   -4.5580    1.0000 </r>
       <r>   -4.0972    1.0000 </r>
       <r>   -4.0888    1.0000 </r>
       <r>   -3.2803    1.0000 </r>
       <r>   -1.8236    1.0000 </r>
       <r>   -1.6218    1.0000 </r>
       <r>   -1.4348    1.0000 </r>
       <r>   -1.0025    1.0000 </r>
       <r>   -0.7934    1.0000 </r>
       <r>   -0.4784    1.0000 </r>
       <r>   -0.2886    1.0000 </r>
       <r>    0.1972    1.0000 </r>
       <r>    0.2817    1.0000 </r>
       <r>    0.5591    1.0000 </r>
       <r>    1.0143    1.0000 </r>
       <r>    1.2407    1.0000 </r>
       <r>    9.6329    0.0000 </r>
[...]
       <r>    1.1198    1.0000 </r>
       <r>   10.2287    0.0000 </r>
       <r>   10.7258    0.0000 </r>
       <r>   11.0104    0.0000 </r>
       <r>   11.1981    0.0000 </r>
       <r>   11.5402    0.0000 </r>
      </set>
      <set comment="kpoint 22">
       <r>  -17.5875    1.0000 </r>
       <r>  -17.1405    1.0000 </r>
       <r>  -16.7055    1.0000 </r>
       <r>  -16.0717    1.0000 </r>
       <r>  -15.9937    1.0000 </r>
       <r>  -15.9603    1.0000 </r>
       <r>   -6.8755    1.0000 </r>
       <r>   -5.9134    1.0000 </r>
       <r>   -5.0494    1.0000 </r>
       <r>   -3.9968    1.0000 </r>
       <r>   -3.7029    1.0000 </r>
       <r>   -3.6167    1.0000 </r>
       <r>   -1.9299    1.0000 </r>
       <r>   -1.9231    1.0000 </r>
       <r>   -1.1444    1.0000 </r>
       <r>   -0.8291    1.0000 </r>
       <r>   -0.7467    1.0000 </r>
       <r>   -0.2734    1.0000 </r>
       <r>    0.0226    1.0000 </r>
       <r>    0.1892    1.0000 </r>
       <r>    0.3983    1.0000 </r>
       <r>    0.4009    1.0000 </r>
       <r>    0.6994    1.0000 </r>
       <r>    1.1187    1.0000 </r>
       <r>   10.2246    0.0000 </r>
       <r>   10.7239    0.0000 </r>
       <r>   11.0231    0.0000 </r>
       <r>   11.2043    0.0000 </r>
       <r>   11.5360    0.0000 </r>
      </set>
      <set comment="kpoint 23">
       <r>  -17.5753    1.0000 </r>
       <r>  -17.1859    1.0000 </r>
       <r>  -16.6523    1.0000 </r>
       <r>  -16.0614    1.0000 </r>
       <r>  -15.9932    1.0000 </r>
       <r>  -15.9927    1.0000 </r>
       <r>   -6.8564    1.0000 </r>
       <r>   -5.8702    1.0000 </r>
       <r>   -5.1564    1.0000 </r>
       <r>   -3.8972    1.0000 </r>
       <r>   -3.7950    1.0000 </r>
       <r>   -3.6160    1.0000 </r>
       <r>   -1.9738    1.0000 </r>
       <r>   -1.7465    1.0000 </r>
       <r>   -1.2651    1.0000 </r>
       <r>   -0.9005    1.0000 </r>
       <r>   -0.6224    1.0000 </r>
       <r>   -0.4218    1.0000 </r>
       <r>    0.1487    1.0000 </r>
       <r>    0.2563    1.0000 </r>
       <r>    0.3283    1.0000 </r>
       <r>    0.5709    1.0000 </r>
       <r>    0.7164    1.0000 </r>
       <r>    0.9240    1.0000 </r>
       <r>   10.1761    0.0000 </r>
       <r>   10.6516    0.0000 </r>
       <r>   10.9652    0.0000 </r>
       <r>   11.3053    0.0000 </r>
       <r>   11.7228    0.0000 </r>
      </set>
      <set comment="kpoint 24">
       <r>  -17.5751    1.0000 </r>
       <r>  -17.1861    1.0000 </r>
       <r>  -16.6525    1.0000 </r>
       <r>  -16.0624    1.0000 </r>
       <r>  -15.9930    1.0000 </r>
       <r>  -15.9915    1.0000 </r>
       <r>   -6.8571    1.0000 </r>
       <r>   -5.8697    1.0000 </r>
       <r>   -5.1558    1.0000 </r>
       <r>   -3.8991    1.0000 </r>
       <r>   -3.7951    1.0000 </r>
       <r>   -3.6145    1.0000 </r>
       <r>   -1.9743    1.0000 </r>
       <r>   -1.7478    1.0000 </r>
       <r>   -1.2639    1.0000 </r>
       <r>   -0.8999    1.0000 </r>
       <r>   -0.6223    1.0000 </r>
       <r>   -0.4230    1.0000 </r>
       <r>    0.1505    1.0000 </r>
       <r>    0.2545    1.0000 </r>
       <r>    0.3287    1.0000 </r>
       <r>    0.5718    1.0000 </r>
       <r>    0.7166    1.0000 </r>
       <r>    0.9244    1.0000 </r>
       <r>   10.1789    0.0000 </r>
       <r>   10.6496    0.0000 </r>
       <r>   10.9593    0.0000 </r>
       <r>   11.3040    0.0000 </r>
       <r>   11.7225    0.0000 </r>
      </set>
     </set>
    </set>
   </array>
  </eigenvalues>
  <separator name="orbital magnetization" >
   <v name="MAGDIPOLOUT">      0.00000000      0.00000000      0.00000000</v>
  </separator>
  <dos>
   <i name="efermi">      1.78477245 </i>
   <total>
    <array>
     <dimension dim="1">gridpoints</dimension>
     <dimension dim="2">spin</dimension>
     <field>energy</field>
     <field>total</field>
     <field>integrated</field>
     <set>
      <set comment="spin 1">
       <r>   -19.6805     0.0000     0.0000 </r>
       <r>   -19.5699     0.0000     0.0000 </r>
       <r>   -19.4592     0.0000     0.0000 </r>
       <r>   -19.3486     0.0000     0.0000 </r>
       <r>   -19.2380     0.0000     0.0000 </r>
       <r>   -19.1274     0.0000     0.0000 </r>
       <r>   -19.0167     0.0000     0.0000 </r>
       <r>   -18.9061     0.0000     0.0000 </r>
       <r>   -18.7955     0.0000     0.0000 </r>
       <r>   -18.6849     0.0000     0.0000 </r>
       <r>   -18.5742     0.0000     0.0000 </r>
       <r>   -18.4636     0.0000     0.0000 </r>
       <r>   -18.3530     0.0015     0.0002 </r>
       <r>   -18.2423     0.0455     0.0052 </r>
       <r>   -18.1317     0.2561     0.0335 </r>
       <r>   -18.0211     0.9593     0.1396 </r>
       <r>   -17.9105     2.1805     0.3809 </r>
       <r>   -17.7998     2.2490     0.6297 </r>
       <r>   -17.6892     3.1561     0.9788 </r>
       <r>   -17.5786     6.7081     1.7209 </r>
       <r>   -17.4679     3.7419     2.1349 </r>
       <r>   -17.3573     0.7675     2.2198 </r>
       <r>   -17.2467     1.6677     2.4043 </r>
       <r>   -17.1361     7.3339     3.2156 </r>
       <r>   -17.0254     4.7009     3.7357 </r>
       <r>   -16.9148     0.5607     3.7977 </r>
       <r>   -16.8042     0.9821     3.9064 </r>
       <r>   -16.6935     2.7466     4.2102 </r>
       <r>   -16.5829     6.4601     4.9249 </r>
       <r>   -16.4723     3.7467     5.3394 </r>
       <r>   -16.3617     1.9948     5.5600 </r>
       <r>   -16.2510     2.2038     5.8038 </r>
       <r>   -16.1404     3.0167     6.1376 </r>
       <r>   -16.0298    16.1077     7.9195 </r>
       <r>   -15.9192    27.1213    10.9199 </r>
       <r>   -15.8085     9.2277    11.9408 </r>
       <r>   -15.6979     0.5314    11.9995 </r>
       <r>   -15.5873     0.0042    12.0000 </r>
       <r>   -15.4766     0.0000    12.0000 </r>
       <r>   -15.3660     0.0000    12.0000 </r>
       <r>   -15.2554     0.0000    12.0000 </r>
       <r>   -15.1448     0.0000    12.0000 </r>
       <r>   -15.0341     0.0000    12.0000 </r>
       <r>   -14.9235     0.0000    12.0000 </r>
       <r>   -14.8129     0.0000    12.0000 </r>
       <r>   -14.7022     0.0000    12.0000 </r>
       <r>   -14.5916     0.0000    12.0000 </r>
       <r>   -14.4810     0.0000    12.0000 </r>
       <r>   -14.3704     0.0000    12.0000 </r>
       <r>   -14.2597     0.0000    12.0000 </r>
       <r>   -14.1491     0.0000    12.0000 </r>
       <r>   -14.0385     0.0000    12.0000 </r>
       <r>   -13.9278     0.0000    12.0000 </r>
       <r>   -13.8172     0.0000    12.0000 </r>
       <r>   -13.7066     0.0000    12.0000 </r>
       <r>   -13.5960     0.0000    12.0000 </r>
       <r>   -13.4853     0.0000    12.0000 </r>
       <r>   -13.3747     0.0000    12.0000 </r>
       <r>   -13.2641     0.0000    12.0000 </r>
       <r>   -13.1535     0.0000    12.0000 </r>
       <r>   -13.0428     0.0000    12.0000 </r>
       <r>   -12.9322     0.0000    12.0000 </r>
       <r>   -12.8216     0.0000    12.0000 </r>
       <r>   -12.7109     0.0000    12.0000 </r>
       <r>   -12.6003     0.0000    12.0000 </r>
       <r>   -12.4897     0.0000    12.0000 </r>
       <r>   -12.3791     0.0000    12.0000 </r>
       <r>   -12.2684     0.0000    12.0000 </r>
       <r>   -12.1578     0.0000    12.0000 </r>
       <r>   -12.0472     0.0000    12.0000 </r>
       <r>   -11.9365     0.0000    12.0000 </r>
       <r>   -11.8259     0.0000    12.0000 </r>
       <r>   -11.7153     0.0000    12.0000 </r>
       <r>   -11.6047     0.0000    12.0000 </r>
       <r>   -11.4940     0.0000    12.0000 </r>
       <r>   -11.3834     0.0000    12.0000 </r>
       <r>   -11.2728     0.0000    12.0000 </r>
       <r>   -11.1622     0.0000    12.0000 </r>
       <r>   -11.0515     0.0000    12.0000 </r>
       <r>   -10.9409     0.0000    12.0000 </r>
       <r>   -10.8303     0.0000    12.0000 </r>
       <r>   -10.7196     0.0000    12.0000 </r>
       <r>   -10.6090     0.0000    12.0000 </r>
       <r>   -10.4984     0.0000    12.0000 </r>
       <r>   -10.3878     0.0000    12.0000 </r>
       <r>   -10.2771     0.0000    12.0000 </r>
       <r>   -10.1665     0.0000    12.0000 </r>
       <r>   -10.0559     0.0000    12.0000 </r>
       <r>    -9.9452     0.0000    12.0000 </r>
       <r>    -9.8346     0.0000    12.0000 </r>
       <r>    -9.7240     0.0000    12.0000 </r>
       <r>    -9.6134     0.0000    12.0000 </r>
       <r>    -9.5027     0.0000    12.0000 </r>
       <r>    -9.3921     0.0000    12.0000 </r>
       <r>    -9.2815     0.0000    12.0000 </r>
       <r>    -9.1708     0.0000    12.0000 </r>
       <r>    -9.0602     0.0000    12.0000 </r>
       <r>    -8.9496     0.0000    12.0000 </r>
       <r>    -8.8390     0.0000    12.0000 </r>
       <r>    -8.7283     0.0000    12.0000 </r>
       <r>    -8.6177     0.0000    12.0000 </r>
       <r>    -8.5071     0.0000    12.0000 </r>
       <r>    -8.3965     0.0000    12.0000 </r>
       <r>    -8.2858     0.0000    12.0000 </r>
       <r>    -8.1752     0.0001    12.0000 </r>
       <r>    -8.0646     0.0118    12.0013 </r>
       <r>    -7.9539     0.1113    12.0136 </r>
       <r>    -7.8433     0.1385    12.0290 </r>
       <r>    -7.7327     0.0942    12.0394 </r>
       <r>    -7.6221     0.4181    12.0856 </r>
       <r>    -7.5114     0.9762    12.1936 </r>
       <r>    -7.4008     1.2326    12.3300 </r>
       <r>    -7.2902     1.9620    12.5470 </r>
       <r>    -7.1795     1.0250    12.6604 </r>
       <r>    -7.0689     1.3983    12.8151 </r>
       <r>    -6.9583     4.6307    13.3274 </r>
       <r>    -6.8477     4.7410    13.8519 </r>
       <r>    -6.7370     1.5063    14.0185 </r>
       <r>    -6.6264     0.1962    14.0402 </r>
       <r>    -6.5158     0.7033    14.1180 </r>
       <r>    -6.4052     0.7906    14.2055 </r>
       <r>    -6.2945     0.1178    14.2185 </r>
       <r>    -6.1839     0.0261    14.2214 </r>
       <r>    -6.0733     0.5301    14.2801 </r>
       <r>    -5.9626     3.4370    14.6603 </r>
       <r>    -5.8520     6.9586    15.4301 </r>
       <r>    -5.7414     2.9711    15.7588 </r>
       <r>    -5.6308     0.2012    15.7811 </r>
       <r>    -5.5201     0.0177    15.7830 </r>
       <r>    -5.4095     0.3526    15.8220 </r>
       <r>    -5.2989     0.9962    15.9322 </r>
       <r>    -5.1882     0.9269    16.0348 </r>
       <r>    -5.0776     2.1987    16.2780 </r>
       <r>    -4.9670     3.8984    16.7093 </r>
       <r>    -4.8564     2.9730    17.0382 </r>
       <r>    -4.7457     1.8739    17.2455 </r>
       <r>    -4.6351     1.8030    17.4450 </r>
       <r>    -4.5245     1.9934    17.6655 </r>
       <r>    -4.4138     0.6194    17.7340 </r>
       <r>    -4.3032     0.7503    17.8170 </r>
       <r>    -4.1926     3.0948    18.1594 </r>
       <r>    -4.0820     8.8759    19.1413 </r>
       <r>    -3.9713     9.6766    20.2118 </r>
       <r>    -3.8607     6.6540    20.9479 </r>
       <r>    -3.7501     6.7688    21.6967 </r>
       <r>    -3.6395     5.6611    22.3230 </r>
       <r>    -3.5288     5.6947    22.9530 </r>
       <r>    -3.4182     5.0875    23.5158 </r>
       <r>    -3.3076     2.6629    23.8104 </r>
       <r>    -3.1969     1.4510    23.9709 </r>
       <r>    -3.0863     0.2569    23.9994 </r>
       <r>    -2.9757     0.0059    24.0000 </r>
       <r>    -2.8651     0.0000    24.0000 </r>
       <r>    -2.7544     0.0000    24.0000 </r>
       <r>    -2.6438     0.0000    24.0000 </r>
       <r>    -2.5332     0.0000    24.0000 </r>
       <r>    -2.4225     0.0000    24.0000 </r>
       <r>    -2.3119     0.0000    24.0000 </r>
       <r>    -2.2013     0.0015    24.0002 </r>
       <r>    -2.0907     0.1635    24.0183 </r>
       <r>    -1.9800     2.6341    24.3097 </r>
       <r>    -1.8694     7.9590    25.1902 </r>
       <r>    -1.7588     8.1297    26.0895 </r>
       <r>    -1.6482     6.8183    26.8438 </r>
       <r>    -1.5375     5.3446    27.4351 </r>
       <r>    -1.4269     6.3693    28.1397 </r>
       <r>    -1.3163     8.4964    29.0797 </r>
       <r>    -1.2056     5.9425    29.7371 </r>
       <r>    -1.0950     3.8883    30.1672 </r>
       <r>    -0.9844     4.8522    30.7040 </r>
       <r>    -0.8738     8.3947    31.6327 </r>
       <r>    -0.7631     6.9370    32.4001 </r>
       <r>    -0.6525     7.3774    33.2163 </r>
       <r>    -0.5419     6.3223    33.9157 </r>
       <r>    -0.4312     6.2620    34.6084 </r>
       <r>    -0.3206     5.9515    35.2668 </r>
       <r>    -0.2100     8.0570    36.1582 </r>
       <r>    -0.0994     9.8396    37.2467 </r>
       <r>     0.0113     8.1690    38.1504 </r>
       <r>     0.1219     8.9422    39.1397 </r>
       <r>     0.2325     9.4932    40.1899 </r>
       <r>     0.3432    10.6982    41.3734 </r>
       <r>     0.4538     8.7376    42.3400 </r>
       <r>     0.5644     5.7926    42.9809 </r>
       <r>     0.6750     6.2834    43.6760 </r>
       <r>     0.7857     5.2742    44.2595 </r>
       <r>     0.8963     6.6560    44.9958 </r>
       <r>     1.0069     6.7048    45.7375 </r>
       <r>     1.1175     7.8314    46.6039 </r>
       <r>     1.2282     8.2977    47.5219 </r>
       <r>     1.3388     3.7663    47.9385 </r>
       <r>     1.4494     0.5424    47.9985 </r>
       <r>     1.5601     0.0132    48.0000 </r>
       <r>     1.6707     0.0000    48.0000 </r>
       <r>     1.7813     0.0000    48.0000 </r>
       <r>     1.8919     0.0000    48.0000 </r>
       <r>     2.0026     0.0000    48.0000 </r>
       <r>     2.1132     0.0000    48.0000 </r>
       <r>     2.2238     0.0000    48.0000 </r>
       <r>     2.3345     0.0000    48.0000 </r>
       <r>     2.4451     0.0000    48.0000 </r>
       <r>     2.5557     0.0000    48.0000 </r>
       <r>     2.6663     0.0000    48.0000 </r>
       <r>     2.7770     0.0000    48.0000 </r>
       <r>     2.8876     0.0000    48.0000 </r>
       <r>     2.9982     0.0000    48.0000 </r>
       <r>     3.1089     0.0000    48.0000 </r>
       <r>     3.2195     0.0000    48.0000 </r>
       <r>     3.3301     0.0000    48.0000 </r>
       <r>     3.4407     0.0000    48.0000 </r>
       <r>     3.5514     0.0000    48.0000 </r>
       <r>     3.6620     0.0000    48.0000 </r>
       <r>     3.7726     0.0000    48.0000 </r>
       <r>     3.8832     0.0000    48.0000 </r>
       <r>     3.9939     0.0000    48.0000 </r>
       <r>     4.1045     0.0000    48.0000 </r>
       <r>     4.2151     0.0000    48.0000 </r>
       <r>     4.3258     0.0000    48.0000 </r>
       <r>     4.4364     0.0000    48.0000 </r>
       <r>     4.5470     0.0000    48.0000 </r>
       <r>     4.6576     0.0000    48.0000 </r>
       <r>     4.7683     0.0000    48.0000 </r>
       <r>     4.8789     0.0000    48.0000 </r>
       <r>     4.9895     0.0000    48.0000 </r>
       <r>     5.1002     0.0000    48.0000 </r>
       <r>     5.2108     0.0000    48.0000 </r>
       <r>     5.3214     0.0000    48.0000 </r>
       <r>     5.4320     0.0000    48.0000 </r>
       <r>     5.5427     0.0000    48.0000 </r>
       <r>     5.6533     0.0000    48.0000 </r>
       <r>     5.7639     0.0000    48.0000 </r>
       <r>     5.8745     0.0000    48.0000 </r>
       <r>     5.9852     0.0000    48.0000 </r>
       <r>     6.0958     0.0000    48.0000 </r>
       <r>     6.2064     0.0000    48.0000 </r>
       <r>     6.3171     0.0000    48.0000 </r>
       <r>     6.4277     0.0000    48.0000 </r>
       <r>     6.5383     0.0000    48.0000 </r>
       <r>     6.6489     0.0000    48.0000 </r>
       <r>     6.7596     0.0000    48.0000 </r>
       <r>     6.8702     0.0000    48.0000 </r>
       <r>     6.9808     0.0000    48.0000 </r>
       <r>     7.0915     0.0001    48.0000 </r>
       <r>     7.2021     0.0120    48.0013 </r>
       <r>     7.3127     0.1120    48.0137 </r>
       <r>     7.4233     0.1360    48.0288 </r>
       <r>     7.5340     0.0219    48.0312 </r>
       <r>     7.6446     0.0004    48.0313 </r>
       <r>     7.7552     0.0030    48.0316 </r>
       <r>     7.8659     0.0879    48.0413 </r>
       <r>     7.9765     0.3144    48.0761 </r>
       <r>     8.0871     0.1836    48.0964 </r>
       <r>     8.1977     0.4997    48.1517 </r>
       <r>     8.3084     0.9284    48.2544 </r>
       <r>     8.4190     0.2359    48.2805 </r>
       <r>     8.5296     0.0567    48.2868 </r>
       <r>     8.6402     0.8103    48.3764 </r>
       <r>     8.7509     1.8589    48.5820 </r>
       <r>     8.8615     0.6403    48.6529 </r>
       <r>     8.9721     0.0303    48.6562 </r>
       <r>     9.0828     0.0006    48.6563 </r>
       <r>     9.1934     0.0291    48.6595 </r>
       <r>     9.3040     0.2513    48.6873 </r>
       <r>     9.4146     0.5727    48.7507 </r>
       <r>     9.5253     1.0749    48.8696 </r>
       <r>     9.6359     1.4485    49.0298 </r>
       <r>     9.7465     3.0649    49.3689 </r>
       <r>     9.8572     2.9765    49.6982 </r>
       <r>     9.9678     1.7543    49.8922 </r>
       <r>    10.0784     0.5468    49.9527 </r>
       <r>    10.1890     1.0783    50.0720 </r>
       <r>    10.2997     1.3724    50.2239 </r>
       <r>    10.4103     2.0556    50.4513 </r>
       <r>    10.5209     3.1202    50.7964 </r>
       <r>    10.6315     5.0642    51.3567 </r>
       <r>    10.7422     9.0552    52.3584 </r>
       <r>    10.8528     6.1958    53.0439 </r>
       <r>    10.9634     6.5277    53.7660 </r>
       <r>    11.0741     7.3618    54.5804 </r>
       <r>    11.1847     3.0199    54.9145 </r>
       <r>    11.2953     3.6663    55.3201 </r>
       <r>    11.4059     5.6564    55.9459 </r>
       <r>    11.5166     6.3210    56.6451 </r>
       <r>    11.6272     5.3525    57.2373 </r>
       <r>    11.7378     3.3700    57.6101 </r>
       <r>    11.8485     2.1670    57.8498 </r>
       <r>    11.9591     0.7320    57.9308 </r>
       <r>    12.0697     0.4924    57.9853 </r>
       <r>    12.1803     0.1287    57.9995 </r>
       <r>    12.2910     0.0043    58.0000 </r>
       <r>    12.4016     0.0000    58.0000 </r>
       <r>    12.5122     0.0000    58.0000 </r>
       <r>    12.6229     0.0000    58.0000 </r>
       <r>    12.7335     0.0000    58.0000 </r>
       <r>    12.8441     0.0000    58.0000 </r>
       <r>    12.9547     0.0000    58.0000 </r>
       <r>    13.0654     0.0000    58.0000 </r>
       <r>    13.1760     0.0000    58.0000 </r>
       <r>    13.2866     0.0000    58.0000 </r>
       <r>    13.3972     0.0000    58.0000 </r>
       <r>    13.5079     0.0000    58.0000 </r>
      </set>
     </set>
    </array>
   </total>
  </dos>
 </calculation>
 <structure name="finalpos" >
  <crystal>
   <varray name="basis" >
    <v>       4.87342988       0.00000000       0.00000000 </v>
    <v>      -2.43671494       4.22051408       0.00000000 </v>
    <v>       0.00000000       0.00000000       5.37418982 </v>
   </varray>
   <i name="volume">    110.53837516 </i>
   <varray name="rec_basis" >
    <v>       0.20519429       0.11846898      -0.00000000 </v>
    <v>       0.00000000       0.23693796       0.00000000 </v>
    <v>       0.00000000      -0.00000000       0.18607456 </v>
   </varray>
  </crystal>
  <varray name="positions" >
   <v>       0.46459390       0.00000001       0.66666666 </v>
   <v>       0.99991745       0.46468620       0.33328540 </v>
   <v>       0.53523125       0.53531381       0.00004793 </v>
   <v>       0.13549180       0.72382460       0.55425067 </v>
   <v>       0.27600626       0.41140960       0.22096829 </v>
   <v>       0.58856072       0.86443153       0.88734735 </v>
   <v>       0.41166720       0.27617539       0.77908268 </v>
   <v>       0.86459666       0.58859038       0.11236502 </v>
   <v>       0.72412921       0.13556847       0.44598598 </v>
  </varray>
 </structure>
</modeling>
