<?xml version="1.0" encoding="ISO-8859-1"?>
<modeling>
 <generator>
  <i name="program" type="string">vasp </i>
  <i name="version" type="string">6.4.1  </i>
  <i name="subversion" type="string">05Apr23 (build Sep  6 2023 20:49:31) complex                          parallel </i>
  <i name="platform" type="string">LinuxNV </i>
  <i name="date" type="string">2023 10 19 </i>
  <i name="time" type="string">14:07:57 </i>
 </generator>
 <incar>
  <i type="string" name="PREC">Accurate</i>
  <i type="string" name="ALGO">Fast</i>
  <i name="EDIFF">      0.00000001</i>
  <i name="ENCUT">    500.00000000</i>
  <i type="int" name="ISMEAR">     0</i>
  <i name="SIGMA">      0.10000000</i>
  <i type="logical" name="LEPSILON"> T  </i>
 </incar>
 <primitive_cell>
  <structure name="primitive_cell" >
   <crystal>
    <varray name="basis" >
     <v>       4.87342988       0.00000000       0.00000000 </v>
     <v>      -2.43671494       4.22051408       0.00000000 </v>
     <v>       0.00000000       0.00000000       5.37418982 </v>
    </varray>
    <i name="volume">    110.53837516 </i>
    <varray name="rec_basis" >
     <v>       0.20519429       0.11846898      -0.00000000 </v>
     <v>       0.00000000       0.23693796       0.00000000 </v>
     <v>       0.00000000      -0.00000000       0.18607456 </v>
    </varray>
   </crystal>
   <varray name="positions" >
    <v>       0.46471656       1.00000000       0.66666666 </v>
    <v>       0.99990987       0.46462108       0.33352545 </v>
    <v>       0.53528879       0.53537892       0.99980789 </v>
    <v>       0.13562791       0.72408747       0.55418494 </v>
    <v>       0.27603202       0.41141289       0.22091568 </v>
    <v>       0.58843725       0.86454517       0.88746570 </v>
    <v>       0.41154044       0.27591253       0.77914839 </v>
    <v>       0.86461913       0.58858711       0.11241765 </v>
    <v>       0.72389209       0.13545484       0.44586764 </v>
   </varray>
  </structure>
  <varray name="primitive_index" >
   <v type="int" >        1 </v>
   <v type="int" >        2 </v>
   <v type="int" >        3 </v>
   <v type="int" >        4 </v>
   <v type="int" >        5 </v>
   <v type="int" >        6 </v>
   <v type="int" >        7 </v>
   <v type="int" >        8 </v>
   <v type="int" >        9 </v>
  </varray>
 </primitive_cell>
 <kpoints>
  <generation param="Gamma">
   <v type="int" name="divisions">       4        4        4 </v>
   <v name="usershift">      0.00000000       0.00000000       0.00000000 </v>
   <v name="genvec1">      0.25000000       0.00000000       0.00000000 </v>
   <v name="genvec2">      0.00000000       0.25000000       0.00000000 </v>
   <v name="genvec3">      0.00000000       0.00000000       0.25000000 </v>
   <v name="shift">      0.00000000       0.00000000       0.00000000 </v>
  </generation>
  <varray name="kpointlist" >
   <v>       0.00000000       0.00000000       0.00000000 </v>
   <v>       0.25000000       0.00000000       0.00000000 </v>
   <v>       0.00000000       0.25000000       0.00000000 </v>
   <v>       0.50000000       0.00000000       0.00000000 </v>
   <v>       0.00000000       0.50000000       0.00000000 </v>
   <v>       0.25000000       0.25000000       0.00000000 </v>
   <v>       0.50000000       0.25000000       0.00000000 </v>
   <v>       0.00000000       0.00000000       0.25000000 </v>
   <v>       0.25000000       0.00000000       0.25000000 </v>
   <v>       0.00000000       0.25000000       0.25000000 </v>
   <v>      -0.25000000       0.00000000       0.25000000 </v>
   <v>       0.00000000      -0.25000000       0.25000000 </v>
   <v>       0.50000000       0.00000000       0.25000000 </v>
   <v>       0.00000000       0.50000000       0.25000000 </v>
   <v>       0.25000000       0.25000000       0.25000000 </v>
   <v>       0.50000000       0.25000000       0.25000000 </v>
   <v>      -0.25000000      -0.25000000       0.25000000 </v>
   <v>       0.00000000       0.00000000       0.50000000 </v>
   <v>       0.25000000       0.00000000       0.50000000 </v>
   <v>       0.00000000       0.25000000       0.50000000 </v>
   <v>       0.50000000       0.00000000       0.50000000 </v>
   <v>       0.00000000       0.50000000       0.50000000 </v>
   <v>       0.25000000       0.25000000       0.50000000 </v>
   <v>       0.50000000       0.25000000       0.50000000 </v>
  </varray>
  <varray name="weights" >
   <v>       0.01562500 </v>
   <v>       0.06250000 </v>
   <v>       0.03125000 </v>
   <v>       0.03125000 </v>
   <v>       0.01562500 </v>
   <v>       0.06250000 </v>
   <v>       0.03125000 </v>
   <v>       0.03125000 </v>
   <v>       0.06250000 </v>
   <v>       0.03125000 </v>
   <v>       0.06250000 </v>
   <v>       0.03125000 </v>
   <v>       0.06250000 </v>
   <v>       0.03125000 </v>
   <v>       0.06250000 </v>
   <v>       0.06250000 </v>
   <v>       0.06250000 </v>
   <v>       0.01562500 </v>
   <v>       0.06250000 </v>
   <v>       0.03125000 </v>
   <v>       0.03125000 </v>
   <v>       0.01562500 </v>
   <v>       0.06250000 </v>
   <v>       0.03125000 </v>
  </varray>
 </kpoints>
 <parameters>
  <separator name="general" >
   <i type="string" name="SYSTEM">unknown system</i>
   <i type="logical" name="LCOMPAT"> F  </i>
  </separator>
  <separator name="electronic" >
   <i type="string" name="PREC">accura</i>
   <i name="ENMAX">    500.00000000</i>
   <i name="ENAUG">    605.39200000</i>
   <i name="EDIFF">      0.00000001</i>
   <i type="int" name="IALGO">    68</i>
   <i type="int" name="IWAVPR">    10</i>
   <i type="int" name="NBANDS">    29</i>
   <i type="int" name="NBANDSLOW">    -1</i>
   <i type="int" name="NBANDSHIGH">    -1</i>
   <i name="NELECT">     48.00000000</i>
   <i type="int" name="TURBO">     0</i>
   <i type="int" name="IRESTART">     0</i>
   <i type="int" name="NREBOOT">     0</i>
   <i type="int" name="NMIN">     0</i>
   <i name="EREF">      0.00000000</i>
   <separator name="electronic smearing" >
    <i type="int" name="ISMEAR">     0</i>
    <i name="SIGMA">      0.10000000</i>
    <i name="KSPACING">      0.50000000</i>
    <i type="logical" name="KGAMMA"> T  </i>
    <i type="logical" name="KBLOWUP"> T  </i>
   </separator>
   <separator name="electronic projectors" >
    <i type="logical" name="LREAL"> F  </i>
    <v name="ROPT">      0.00000000      0.00000000</v>
    <i type="int" name="LMAXPAW">  -100</i>
    <i type="int" name="LMAXMIX">     2</i>
    <i type="logical" name="NLSPLINE"> F  </i>
   </separator>
   <separator name="electronic startup" >
    <i type="int" name="ISTART">     0</i>
    <i type="int" name="ICHARG">     2</i>
    <i type="int" name="INIWAV">     1</i>
   </separator>
   <separator name="electronic spin" >
    <i type="int" name="ISPIN">     1</i>
    <i type="logical" name="LNONCOLLINEAR"> F  </i>
    <v name="MAGMOM">      1.00000000      1.00000000      1.00000000      1.00000000      1.00000000      1.00000000      1.00000000      1.00000000      1.00000000</v>
    <i name="NUPDOWN">     -1.00000000</i>
    <i type="logical" name="LSORBIT"> F  </i>
    <v name="SAXIS">      0.00000000      0.00000000      1.00000000</v>
    <i type="logical" name="LSPIRAL"> F  </i>
    <v name="QSPIRAL">      0.00000000      0.00000000      0.00000000</v>
    <i type="logical" name="LZEROZ"> F  </i>
   </separator>
   <separator name="electronic exchange-correlation" >
    <i type="logical" name="LASPH"> F  </i>
    <i type="logical" name="LMETAGGA"> F  </i>
   </separator>
   <separator name="electronic convergence" >
    <i type="int" name="NELM">    60</i>
    <i type="int" name="NELMDL">    -5</i>
    <i type="int" name="NELMIN">     2</i>
    <i name="ENINI">    500.00000000</i>
    <separator name="electronic convergence detail" >
     <i type="logical" name="LDIAG"> T  </i>
     <i type="logical" name="LSUBROT"> F  </i>
     <i name="WEIMIN">      0.00000000</i>
     <i name="EBREAK">      0.00000000</i>
     <i name="DEPER">      0.30000000</i>
     <i type="int" name="NRMM">     4</i>
     <i name="TIME">      0.40000000</i>
    </separator>
   </separator>
   <separator name="electronic mixer" >
    <i name="AMIX">      0.40000000</i>
    <i name="BMIX">      1.00000000</i>
    <i name="AMIN">      0.10000000</i>
    <i name="AMIX_MAG">      1.60000000</i>
    <i name="BMIX_MAG">      1.00000000</i>
    <separator name="electronic mixer details" >
     <i type="int" name="IMIX">     4</i>
     <i type="logical" name="MIXFIRST"> F  </i>
     <i type="int" name="MAXMIX">   -45</i>
     <i name="WC">    100.00000000</i>
     <i type="int" name="INIMIX">     1</i>
     <i type="int" name="MIXPRE">     1</i>
     <i type="int" name="MREMOVE">     5</i>
    </separator>
   </separator>
   <separator name="electronic dipolcorrection" >
    <i type="logical" name="LDIPOL"> F  </i>
    <i type="logical" name="LMONO"> F  </i>
    <i type="int" name="IDIPOL">     0</i>
    <i name="EPSILON">      1.00000000</i>
    <v name="DIPOL">   -100.00000000   -100.00000000   -100.00000000</v>
    <i name="EFIELD">      0.00000000</i>
   </separator>
  </separator>
  <separator name="grids" >
   <i type="int" name="NGX">    36</i>
   <i type="int" name="NGY">    36</i>
   <i type="int" name="NGZ">    40</i>
   <i type="int" name="NGXF">    72</i>
   <i type="int" name="NGYF">    72</i>
   <i type="int" name="NGZF">    80</i>
   <i type="logical" name="ADDGRID"> F  </i>
  </separator>
  <separator name="ionic" >
   <i type="int" name="NSW">     0</i>
   <i type="int" name="IBRION">    -1</i>
   <i type="int" name="MDALGO">     0</i>
   <i type="int" name="ISIF">     2</i>
   <i name="PSTRESS">      0.00000000</i>
   <i name="EDIFFG">      0.00000010</i>
   <i type="int" name="NFREE">     0</i>
   <i name="POTIM">      0.50000000</i>
   <i name="SMASS">     -3.00000000</i>
   <i name="SCALEE">      1.00000000</i>
  </separator>
  <separator name="ionic md" >
   <i name="TEBEG">      0.00010000</i>
   <i name="TEEND">      0.00010000</i>
   <i type="int" name="NBLOCK">     1</i>
   <i type="int" name="KBLOCK">     1</i>
   <i type="int" name="NPACO">   256</i>
   <i name="APACO">     10.00000000</i>
  </separator>
  <separator name="symmetry" >
   <i type="int" name="ISYM">     2</i>
   <i name="SYMPREC">      0.00001000</i>
  </separator>
  <separator name="dos" >
   <i type="int" name="LORBIT">     0</i>
   <v name="RWIGS">     -1.00000000     -1.00000000</v>
   <i type="int" name="NEDOS">   301</i>
   <i name="EMIN">     10.00000000</i>
   <i name="EMAX">    -10.00000000</i>
   <i name="EFERMI">      0.00000000</i>
  </separator>
  <separator name="writing" >
   <i type="int" name="NWRITE">     2</i>
   <i type="logical" name="LWAVE"> T  </i>
   <i type="logical" name="LDOWNSAMPLE"> F  </i>
   <i type="logical" name="LCHARG"> T  </i>
   <i type="logical" name="LPARD"> F  </i>
   <i type="logical" name="LVTOT"> F  </i>
   <i type="logical" name="LVHAR"> F  </i>
   <i type="logical" name="LELF"> F  </i>
   <i type="logical" name="LOPTICS"> F  </i>
   <v name="STM">      0.00000000      0.00000000      0.00000000      0.00000000      0.00000000      0.00000000      0.00000000</v>
  </separator>
  <separator name="performance" >
   <i type="int" name="NPAR">     1</i>
   <i type="int" name="NSIM">     4</i>
   <i type="int" name="NBLK">    -1</i>
   <i type="logical" name="LPLANE"> T  </i>
   <i type="logical" name="LSCALAPACK"> T  </i>
   <i type="logical" name="LSCAAWARE"> F  </i>
   <i type="logical" name="LSCALU"> F  </i>
   <i type="logical" name="LASYNC"> F  </i>
   <i type="logical" name="LORBITALREAL"> F  </i>
  </separator>
  <separator name="miscellaneous" >
   <i type="int" name="IDIOT">     3</i>
   <i type="int" name="PHON_NSTRUCT">    -1</i>
   <i type="logical" name="LMUSIC"> F  </i>
   <v name="POMASS">     28.08500000     16.00000000</v>
   <v name="DARWINR">      0.00000000      0.00000000</v>
   <v name="DARWINV">      1.00000000      1.00000000</v>
   <i type="logical" name="LCORR"> T  </i>
  </separator>
  <i type="logical" name="GGA_COMPAT"> T  </i>
  <i type="logical" name="LBERRY"> F  </i>
  <i type="int" name="ICORELEVEL">     0</i>
  <i type="logical" name="LDAU"> F  </i>
  <i type="int" name="I_CONSTRAINED_M">     0</i>
  <separator name="electronic exchange-correlation" >
   <i type="string" name="GGA">--</i>
   <i type="int" name="VOSKOWN">     0</i>
   <i type="logical" name="LHFCALC"> F  </i>
   <i type="string" name="PRECFOCK"></i>
   <i type="logical" name="LSYMGRAD"> F  </i>
   <i type="logical" name="LHFONE"> F  </i>
   <i type="logical" name="LRHFCALC"> F  </i>
   <i type="logical" name="LTHOMAS"> F  </i>
   <i type="logical" name="LMODELHF"> F  </i>
   <i type="logical" name="LFOCKACE"> F  </i>
   <i name="ENCUT4O">     -1.00000000</i>
   <i type="int" name="EXXOEP">     0</i>
   <i type="int" name="FOURORBIT">     0</i>
   <i name="AEXX">      0.00000000</i>
   <i name="HFALPHA">      0.00000000</i>
   <i name="MCALPHA">      0.00000000</i>
   <i name="ALDAX">      1.00000000</i>
   <i name="AGGAX">      1.00000000</i>
   <i name="ALDAC">      1.00000000</i>
   <i name="AGGAC">      1.00000000</i>
   <i type="int" name="NKREDX">     1</i>
   <i type="int" name="NKREDY">     1</i>
   <i type="int" name="NKREDZ">     1</i>
   <i type="logical" name="SHIFTRED"> F  </i>
   <i type="logical" name="ODDONLY"> F  </i>
   <i type="logical" name="EVENONLY"> F  </i>
   <i type="int" name="LMAXFOCK">     0</i>
   <i type="int" name="NMAXFOCKAE">     0</i>
   <i type="logical" name="LFOCKAEDFT"> F  </i>
   <i name="HFSCREEN">      0.00000000</i>
   <i name="HFSCREENC">      0.00000000</i>
   <i type="int" name="NBANDSGWLOW">     0</i>
  </separator>
  <separator name="vdW DFT" >
   <i type="logical" name="LUSE_VDW"> F  </i>
   <i type="int" name="IVDW_NL">     1</i>
   <i type="logical" name="LSPIN_VDW"> F  </i>
   <i name="Zab_VDW">     -0.84910000</i>
   <i name="PARAM1">      0.12340000</i>
   <i name="PARAM2">      1.00000000</i>
   <i name="PARAM3">      0.00000000</i>
  </separator>
  <separator name="model GW" >
   <i type="int" name="MODEL_GW">     0</i>
   <i name="MODEL_EPS0">      7.36922501</i>
   <i name="MODEL_ALPHA">      1.00000000</i>
  </separator>
  <separator name="linear response parameters" >
   <i type="logical" name="LEPSILON"> T  </i>
   <i type="logical" name="LRPA"> F  </i>
   <i type="logical" name="LNABLA"> F  </i>
   <i type="logical" name="LVEL"> F  </i>
   <i name="CSHIFT">      0.10000000</i>
   <i name="OMEGAMAX">     -1.00000000</i>
   <i name="DEG_THRESHOLD">      0.00200000</i>
   <i name="RTIME">     -0.10000000</i>
   <i name="WPLASMAI">      0.00000000</i>
   <v name="DFIELD">      0.00000000      0.00000000      0.00000000</v>
   <v name="WPLASMA">      0.00000000      0.00000000      0.00000000      0.00000000      0.00000000      0.00000000      0.00000000      0.00000000      0.00000000</v>
  </separator>
  <separator name="orbital magnetization" >
   <i type="logical" name="NUCIND"> F  </i>
   <v name="MAGPOS">      0.00000000      0.00000000      0.00000000</v>
   <i type="logical" name="LNICSALL"> T  </i>
   <i type="logical" name="ORBITALMAG"> F  </i>
   <i type="logical" name="LMAGBLOCH"> F  </i>
   <i type="logical" name="LCHIMAG"> F  </i>
   <i type="logical" name="LGAUGE"> T  </i>
   <i type="int" name="MAGATOM">     0</i>
   <v name="MAGDIPOL">      0.00000000      0.00000000      0.00000000</v>
   <v name="AVECCONST">      0.00000000      0.00000000      0.00000000</v>
  </separator>
  <separator name="response functions" >
   <i type="logical" name="LALL_IN_ONE"> F  </i>
   <i type="int" name="IALL_IN_ONE">    -1</i>
   <i type="int" name="NBANDS_WAVE">    -1</i>
   <i type="logical" name="LFINITE_TEMPERATURE"> F  </i>
   <i type="logical" name="LADDER"> F  </i>
   <i type="logical" name="LRPAFORCE"> F  </i>
   <i type="logical" name="LFXC"> F  </i>
   <i type="logical" name="LHARTREE"> T  </i>
   <i type="int" name="IBSE">     0</i>
   <v type="int" name="KPOINT">    -1     0     0     0</v>
   <i type="logical" name="LTCTC"> F  </i>
   <i type="logical" name="LTCTE"> F  </i>
   <i type="logical" name="LTETE"> F  </i>
   <i type="logical" name="LTRIPLET"> F  </i>
   <i type="logical" name="LFXCEPS"> F  </i>
   <i type="logical" name="LFXHEG"> F  </i>
   <i type="int" name="NATURALO">     2</i>
   <i type="logical" name="LHOLEGF"> F  </i>
   <i type="logical" name="L2ORDER"> F  </i>
   <i type="logical" name="LDMP1"> F  </i>
   <i type="logical" name="LMP2LT"> F  </i>
   <i type="logical" name="LSMP2LT"> F  </i>
   <i type="logical" name="LGWLF"> F  </i>
   <i name="ENCUTGW">     -1.60000002</i>
   <i name="ENCUTGWSOFT">     -1.60000002</i>
   <i name="ENCUTLF">     -1.00000000</i>
   <i type="logical" name="LESF_SPLINES"> F  </i>
   <i type="int" name="LMAXMP2">    -1</i>
   <i name="SCISSOR">      0.00000000</i>
   <i type="int" name="NOMEGA">     0</i>
   <i type="int" name="NOMEGAR">     0</i>
   <i type="int" name="NBANDSGW">    -1</i>
   <i type="int" name="NBANDSO">    -1</i>
   <i type="int" name="NBANDSV">    -1</i>
   <i type="int" name="NELMGW">     1</i>
   <i type="int" name="NELMHF">     1</i>
   <i type="int" name="DIM">     3</i>
   <i type="int" name="IESPILON">     4</i>
   <i type="int" name="ANTIRES">     0</i>
   <i name="OMEGAMAX">    -30.00000000</i>
   <i name="OMEGAMIN">    -30.00000000</i>
   <i name="OMEGATL">   -200.00000000</i>
   <i type="int" name="OMEGAGRID">     0</i>
   <i name="CSHIFT">     -0.10000000</i>
   <i type="logical" name="LSELFENERGY"> F  </i>
   <i type="logical" name="LSPECTRAL"> F  </i>
   <i type="logical" name="LSPECTRALGW"> F  </i>
   <i type="logical" name="LSINGLES"> F  </i>
   <i type="logical" name="LFERMIGW"> F  </i>
   <i type="logical" name="ODDONLYGW"> F  </i>
   <i type="logical" name="EVENONLYGW"> F  </i>
   <i type="int" name="NKREDLFX">     1</i>
   <i type="int" name="NKREDLFY">     1</i>
   <i type="int" name="NKREDLFZ">     1</i>
   <i type="int" name="MAXMEM">  2800</i>
   <i type="int" name="TELESCOPE">     0</i>
   <i type="int" name="NTAUPAR">    -1</i>
   <i type="int" name="NOMEGAPAR">    -1</i>
   <i name="DAMP_NEWTON">      0.80000001</i>
   <i name="LAMBDA">      1.00000000</i>
  </separator>
  <separator name="External order field" >
   <i name="OFIELD_KAPPA">      0.00000000</i>
   <v name="OFIELD_K">      0.00000000      0.00000000      0.00000000</v>
   <i name="OFIELD_Q6_NEAR">      0.00000000</i>
   <i name="OFIELD_Q6_FAR">      0.00000000</i>
   <i name="OFIELD_A">      0.00000000</i>
  </separator>
  <separator name="optional k-points parameters" >
   <i type="int" name="KPOINTS_OPT_MODE">     1</i>
   <i type="logical" name="LKPOINTS_OPT"> F  </i>
  </separator>
 </parameters>
 <atominfo>
  <atoms>       9 </atoms>
  <types>       2 </types>
  <array name="atoms" >
   <dimension dim="1">ion</dimension>
   <field type="string">element</field>
   <field type="int">atomtype</field>
   <set>
    <rc><c>Si</c><c>   1</c></rc>
    <rc><c>Si</c><c>   1</c></rc>
    <rc><c>Si</c><c>   1</c></rc>
    <rc><c>O </c><c>   2</c></rc>
    <rc><c>O </c><c>   2</c></rc>
    <rc><c>O </c><c>   2</c></rc>
    <rc><c>O </c><c>   2</c></rc>
    <rc><c>O </c><c>   2</c></rc>
    <rc><c>O </c><c>   2</c></rc>
   </set>
  </array>
  <array name="atomtypes" >
   <dimension dim="1">type</dimension>
   <field type="int">atomspertype</field>
   <field type="string">element</field>
   <field>mass</field>
   <field>valence</field>
   <field type="string">pseudopotential</field>
   <set>
    <rc><c>   3</c><c>Si</c><c>     28.08500000</c><c>      4.00000000</c><c>  PAW_PBE Si 05Jan2001                  </c></rc>
    <rc><c>   6</c><c>O </c><c>     16.00000000</c><c>      6.00000000</c><c>  PAW_PBE O 08Apr2002                   </c></rc>
   </set>
  </array>
 </atominfo>
 <structure name="initialpos" >
  <crystal>
   <varray name="basis" >
    <v>       4.87342988       0.00000000       0.00000000 </v>
    <v>      -2.43671494       4.22051408       0.00000000 </v>
    <v>       0.00000000       0.00000000       5.37418982 </v>
   </varray>
   <i name="volume">    110.53837516 </i>
   <varray name="rec_basis" >
    <v>       0.20519429       0.11846898      -0.00000000 </v>
    <v>       0.00000000       0.23693796       0.00000000 </v>
    <v>       0.00000000      -0.00000000       0.18607456 </v>
   </varray>
  </crystal>
  <varray name="positions" >
   <v>       0.46471656       1.00000000       0.66666666 </v>
   <v>       0.99990987       0.46462108       0.33352545 </v>
   <v>       0.53528879       0.53537892       0.99980789 </v>
   <v>       0.13562791       0.72408747       0.55418494 </v>
   <v>       0.27603202       0.41141289       0.22091568 </v>
   <v>       0.58843725       0.86454517       0.88746570 </v>
   <v>       0.41154044       0.27591253       0.77914839 </v>
   <v>       0.86461913       0.58858711       0.11241765 </v>
   <v>       0.72389209       0.13545484       0.44586764 </v>
  </varray>
 </structure>
 <calculation>
  <scstep>
   <time name="dav">    0.79    0.79</time>
   <time name="total">    0.83    0.81</time>
   <energy>
    <i name="alphaZ">     71.30271804 </i>
    <i name="ewald">  -1930.19380820 </i>
    <i name="hartreedc">   -909.39722795 </i>
    <i name="XCdc">    141.70969595 </i>
    <i name="pawpsdc">   2343.66826019 </i>
    <i name="pawaedc">  -2301.68043871 </i>
    <i name="eentropy">     -0.00747414 </i>
    <i name="bandstr">    -17.83574164 </i>
    <i name="atom">   2903.33737771 </i>
    <i name="e_fr_energy">    300.90336125 </i>
    <i name="e_wo_entrp">    300.91083539 </i>
    <i name="e_0_energy">    300.90709832 </i>
   </energy>
  </scstep>
  <scstep>
   <time name="dav">    0.82    0.82</time>
   <time name="total">    0.82    0.82</time>
   <energy>
    <i name="e_fr_energy">    -60.96014522 </i>
    <i name="e_wo_entrp">    -60.96014522 </i>
    <i name="e_0_energy">    -60.96014522 </i>
   </energy>
  </scstep>
  <scstep>
   <time name="dav">    0.77    0.77</time>
   <time name="total">    0.77    0.77</time>
   <energy>
    <i name="e_fr_energy">    -80.16469211 </i>
    <i name="e_wo_entrp">    -80.16469211 </i>
    <i name="e_0_energy">    -80.16469211 </i>
   </energy>
  </scstep>
  <scstep>
   <time name="dav">    0.77    0.78</time>
   <time name="total">    0.77    0.78</time>
   <energy>
    <i name="e_fr_energy">    -80.41821340 </i>
    <i name="e_wo_entrp">    -80.41821340 </i>
    <i name="e_0_energy">    -80.41821340 </i>
   </energy>
  </scstep>
  <scstep>
   <time name="dav">    0.75    0.76</time>
   <time name="total">    0.88    0.86</time>
   <energy>
    <i name="e_fr_energy">    -80.42325318 </i>
    <i name="e_wo_entrp">    -80.42325318 </i>
    <i name="e_0_energy">    -80.42325318 </i>
   </energy>
  </scstep>
  <scstep>
   <time name="diag">    0.08    0.08</time>
   <time name="diis">    0.86    0.87</time>
   <time name="orth">    0.01    0.01</time>
   <time name="total">    1.11    1.06</time>
   <energy>
    <i name="e_fr_energy">    -70.67415051 </i>
    <i name="e_wo_entrp">    -70.67415051 </i>
    <i name="e_0_energy">    -70.67415051 </i>
   </energy>
  </scstep>
  <scstep>
   <time name="diag">    0.08    0.08</time>
   <time name="diis">    0.96    0.96</time>
   <time name="orth">    0.01    0.01</time>
   <time name="total">    1.20    1.15</time>
   <energy>
    <i name="e_fr_energy">    -70.97630050 </i>
    <i name="e_wo_entrp">    -70.97630050 </i>
    <i name="e_0_energy">    -70.97630050 </i>
   </energy>
  </scstep>
  <scstep>
   <time name="diag">    0.08    0.08</time>
   <time name="diis">    0.96    0.96</time>
   <time name="orth">    0.01    0.01</time>
   <time name="total">    1.20    1.16</time>
   <energy>
    <i name="e_fr_energy">    -70.96826525 </i>
    <i name="e_wo_entrp">    -70.96826525 </i>
    <i name="e_0_energy">    -70.96826525 </i>
   </energy>
  </scstep>
  <scstep>
   <time name="diag">    0.08    0.08</time>
   <time name="diis">    0.97    0.98</time>
   <time name="orth">    0.01    0.01</time>
   <time name="total">    1.22    1.17</time>
   <energy>
    <i name="e_fr_energy">    -70.98736825 </i>
    <i name="e_wo_entrp">    -70.98736825 </i>
    <i name="e_0_energy">    -70.98736825 </i>
   </energy>
  </scstep>
  <scstep>
   <time name="diag">    0.08    0.08</time>
   <time name="diis">    0.97    0.98</time>
   <time name="orth">    0.01    0.01</time>
   <time name="total">    1.23    1.18</time>
   <energy>
    <i name="e_fr_energy">    -70.99268041 </i>
    <i name="e_wo_entrp">    -70.99268041 </i>
    <i name="e_0_energy">    -70.99268041 </i>
   </energy>
  </scstep>
  <scstep>
   <time name="diag">    0.08    0.08</time>
   <time name="diis">    0.97    0.97</time>
   <time name="orth">    0.01    0.01</time>
   <time name="total">    1.21    1.17</time>
   <energy>
    <i name="e_fr_energy">    -70.98881451 </i>
    <i name="e_wo_entrp">    -70.98881451 </i>
    <i name="e_0_energy">    -70.98881451 </i>
   </energy>
  </scstep>
  <scstep>
   <time name="diag">    0.08    0.08</time>
   <time name="diis">    0.97    0.98</time>
   <time name="orth">    0.01    0.01</time>
   <time name="total">    1.22    1.17</time>
   <energy>
    <i name="e_fr_energy">    -70.98942608 </i>
    <i name="e_wo_entrp">    -70.98942608 </i>
    <i name="e_0_energy">    -70.98942608 </i>
   </energy>
  </scstep>
  <scstep>
   <time name="diag">    0.08    0.08</time>
   <time name="diis">    1.03    1.04</time>
   <time name="orth">    0.01    0.01</time>
   <time name="total">    1.28    1.23</time>
   <energy>
    <i name="e_fr_energy">    -70.98919183 </i>
    <i name="e_wo_entrp">    -70.98919183 </i>
    <i name="e_0_energy">    -70.98919183 </i>
   </energy>
  </scstep>
  <scstep>
   <time name="diag">    0.08    0.08</time>
   <time name="diis">    0.98    0.98</time>
   <time name="orth">    0.01    0.01</time>
   <time name="total">    1.23    1.18</time>
   <energy>
    <i name="e_fr_energy">    -70.98914433 </i>
    <i name="e_wo_entrp">    -70.98914433 </i>
    <i name="e_0_energy">    -70.98914433 </i>
   </energy>
  </scstep>
  <scstep>
   <time name="diag">    0.08    0.08</time>
   <time name="diis">    1.07    1.08</time>
   <time name="orth">    0.01    0.01</time>
   <time name="total">    1.32    1.27</time>
   <energy>
    <i name="e_fr_energy">    -70.98914147 </i>
    <i name="e_wo_entrp">    -70.98914147 </i>
    <i name="e_0_energy">    -70.98914147 </i>
   </energy>
  </scstep>
  <scstep>
   <time name="diag">    0.08    0.08</time>
   <time name="diis">    0.98    0.99</time>
   <time name="orth">    0.01    0.01</time>
   <time name="total">    1.23    1.18</time>
   <energy>
    <i name="e_fr_energy">    -70.98914057 </i>
    <i name="e_wo_entrp">    -70.98914057 </i>
    <i name="e_0_energy">    -70.98914057 </i>
   </energy>
  </scstep>
  <scstep>
   <time name="diag">    0.08    0.08</time>
   <time name="diis">    0.99    0.99</time>
   <time name="orth">    0.01    0.01</time>
   <time name="total">    1.24    1.19</time>
   <energy>
    <i name="e_fr_energy">    -70.98914087 </i>
    <i name="e_wo_entrp">    -70.98914087 </i>
    <i name="e_0_energy">    -70.98914087 </i>
   </energy>
  </scstep>
  <scstep>
   <time name="diag">    0.08    0.08</time>
   <time name="diis">    0.99    0.99</time>
   <time name="orth">    0.01    0.01</time>
   <time name="total">    1.24    1.19</time>
   <energy>
    <i name="e_fr_energy">    -70.98914112 </i>
    <i name="e_wo_entrp">    -70.98914112 </i>
    <i name="e_0_energy">    -70.98914112 </i>
   </energy>
  </scstep>
  <scstep>
   <time name="diag">    0.08    0.08</time>
   <time name="diis">    0.98    0.98</time>
   <time name="orth">    0.01    0.01</time>
   <time name="total">    1.22    1.17</time>
   <energy>
    <i name="e_fr_energy">    -70.98914105 </i>
    <i name="e_wo_entrp">    -70.98914105 </i>
    <i name="e_0_energy">    -70.98914105 </i>
   </energy>
  </scstep>
  <scstep>
   <time name="diag">    0.08    0.08</time>
   <time name="diis">    0.98    0.98</time>
   <time name="orth">    0.01    0.01</time>
   <time name="total">    1.23    1.18</time>
   <energy>
    <i name="e_fr_energy">    -70.98914109 </i>
    <i name="e_wo_entrp">    -70.98914109 </i>
    <i name="e_0_energy">    -70.98914109 </i>
   </energy>
  </scstep>
  <scstep>
   <time name="diag">    0.08    0.08</time>
   <time name="diis">    0.69    0.69</time>
   <time name="orth">    0.01    0.01</time>
   <time name="total">    0.94    0.89</time>
   <energy>
    <i name="e_fr_energy">    -70.98914105 </i>
    <i name="e_wo_entrp">    -70.98914105 </i>
    <i name="e_0_energy">    -70.98914105 </i>
   </energy>
  </scstep>
  <scstep>
   <time name="diag">    0.08    0.08</time>
   <time name="diis">    0.66    0.67</time>
   <time name="orth">    0.01    0.01</time>
   <time name="total">    0.78    0.76</time>
   <energy>
    <i name="alphaZ">     71.30271804 </i>
    <i name="ewald">  -1930.19380820 </i>
    <i name="hartreedc">  -1040.55751832 </i>
    <i name="XCdc">    150.68548382 </i>
    <i name="pawpsdc">   8045.51302256 </i>
    <i name="pawaedc">  -8005.89083216 </i>
    <i name="eentropy">     -0.00000000 </i>
    <i name="bandstr">   -265.18558451 </i>
    <i name="atom">   2903.33737771 </i>
    <i name="e_fr_energy">    -70.98914105 </i>
    <i name="e_wo_entrp">    -70.98914105 </i>
    <i name="e_0_energy">    -70.98914105 </i>
   </energy>
  </scstep>
  <structure>
   <crystal>
    <varray name="basis" >
     <v>       4.87342988       0.00000000       0.00000000 </v>
     <v>      -2.43671494       4.22051408       0.00000000 </v>
     <v>       0.00000000       0.00000000       5.37418982 </v>
    </varray>
    <i name="volume">    110.53837516 </i>
    <varray name="rec_basis" >
     <v>       0.20519429       0.11846898      -0.00000000 </v>
     <v>       0.00000000       0.23693796       0.00000000 </v>
     <v>       0.00000000      -0.00000000       0.18607456 </v>
    </varray>
   </crystal>
   <varray name="positions" >
    <v>       0.46471656       1.00000000       0.66666666 </v>
    <v>       0.99990987       0.46462108       0.33352545 </v>
    <v>       0.53528879       0.53537892       0.99980789 </v>
    <v>       0.13562791       0.72408747       0.55418494 </v>
    <v>       0.27603202       0.41141289       0.22091568 </v>
    <v>       0.58843725       0.86454517       0.88746570 </v>
    <v>       0.41154044       0.27591253       0.77914839 </v>
    <v>       0.86461913       0.58858711       0.11241765 </v>
    <v>       0.72389209       0.13545484       0.44586764 </v>
   </varray>
  </structure>
  <varray name="forces" >
   <v>       0.00990858      -0.00000000       0.00000000 </v>
   <v>       0.00548000       0.02886047      -0.05189422 </v>
   <v>       0.00548000      -0.02886047       0.05189422 </v>
   <v>      -0.28753696      -0.01380701       0.15394976 </v>
   <v>       0.13009498      -0.22658761       0.14392550 </v>
   <v>       0.14700769       0.23486249       0.16230477 </v>
   <v>      -0.28753696       0.01380701      -0.15394976 </v>
   <v>       0.13009498       0.22658761      -0.14392550 </v>
   <v>       0.14700769      -0.23486249      -0.16230477 </v>
  </varray>
  <varray name="stress" >
   <v>      71.21512511       0.00000000       0.00000000 </v>
   <v>       0.00000000      72.71568954       0.16173867 </v>
   <v>       0.00000000       0.16173891      73.61414229 </v>
  </varray>
  <energy>
   <i name="e_fr_energy">    -70.98914105 </i>
   <i name="e_wo_entrp">    -70.98914105 </i>
   <i name="e_0_energy">    -70.98914105 </i>
  </energy>
  <scstep>
   <time name="total">   12.05    2.57</time>
   <energy>
    <i name="e_fr_energy">   -182.51302333 </i>
    <i name="e_wo_entrp">   -182.51302333 </i>
    <i name="e_0_energy">   -182.51302333 </i>
   </energy>
  </scstep>
  <scstep>
   <time name="total">   11.75    2.25</time>
   <energy>
    <i name="e_fr_energy">   -172.60709662 </i>
    <i name="e_wo_entrp">   -172.60709662 </i>
    <i name="e_0_energy">   -172.60709662 </i>
   </energy>
  </scstep>
  <scstep>
   <time name="total">   11.74    2.26</time>
   <energy>
    <i name="e_fr_energy">   -172.75497698 </i>
    <i name="e_wo_entrp">   -172.75497698 </i>
    <i name="e_0_energy">   -172.75497698 </i>
   </energy>
  </scstep>
  <scstep>
   <time name="total">    0.92    0.92</time>
   <energy>
    <i name="e_fr_energy">   -172.76248819 </i>
    <i name="e_wo_entrp">   -172.76248819 </i>
    <i name="e_0_energy">   -172.76248819 </i>
   </energy>
  </scstep>
  <scstep>
   <time name="total">    0.92    0.92</time>
   <energy>
    <i name="e_fr_energy">   -172.76265657 </i>
    <i name="e_wo_entrp">   -172.76265657 </i>
    <i name="e_0_energy">   -172.76265657 </i>
   </energy>
  </scstep>
  <scstep>
   <time name="total">    0.92    0.94</time>
   <energy>
    <i name="e_fr_energy">   -172.76267621 </i>
    <i name="e_wo_entrp">   -172.76267621 </i>
    <i name="e_0_energy">   -172.76267621 </i>
   </energy>
  </scstep>
  <scstep>
   <time name="total">    0.92    0.93</time>
   <energy>
    <i name="e_fr_energy">   -172.76266647 </i>
    <i name="e_wo_entrp">   -172.76266647 </i>
    <i name="e_0_energy">   -172.76266647 </i>
   </energy>
  </scstep>
  <scstep>
   <time name="total">    0.92    0.92</time>
   <energy>
    <i name="e_fr_energy">   -172.76266663 </i>
    <i name="e_wo_entrp">   -172.76266663 </i>
    <i name="e_0_energy">   -172.76266663 </i>
   </energy>
  </scstep>
  <scstep>
   <time name="total">    0.92    0.92</time>
   <energy>
    <i name="e_fr_energy">   -172.76266657 </i>
    <i name="e_wo_entrp">   -172.76266657 </i>
    <i name="e_0_energy">   -172.76266657 </i>
   </energy>
  </scstep>
  <scstep>
   <time name="total">    0.93    0.93</time>
   <energy>
    <i name="e_fr_energy">   -172.76266826 </i>
    <i name="e_wo_entrp">   -172.76266826 </i>
    <i name="e_0_energy">   -172.76266826 </i>
   </energy>
  </scstep>
  <scstep>
   <time name="total">   12.05    2.57</time>
   <energy>
    <i name="e_fr_energy">   -182.22874908 </i>
    <i name="e_wo_entrp">   -182.22874908 </i>
    <i name="e_0_energy">   -182.22874908 </i>
   </energy>
  </scstep>
  <scstep>
   <time name="total">   11.71    2.24</time>
   <energy>
    <i name="e_fr_energy">   -172.61039785 </i>
    <i name="e_wo_entrp">   -172.61039785 </i>
    <i name="e_0_energy">   -172.61039785 </i>
   </energy>
  </scstep>
  <scstep>
   <time name="total">   11.70    2.26</time>
   <energy>
    <i name="e_fr_energy">   -172.75496257 </i>
    <i name="e_wo_entrp">   -172.75496257 </i>
    <i name="e_0_energy">   -172.75496257 </i>
   </energy>
  </scstep>
  <scstep>
   <time name="total">    0.91    0.91</time>
   <energy>
    <i name="e_fr_energy">   -172.76220509 </i>
    <i name="e_wo_entrp">   -172.76220509 </i>
    <i name="e_0_energy">   -172.76220509 </i>
   </energy>
  </scstep>
  <scstep>
   <time name="total">    0.92    0.92</time>
   <energy>
    <i name="e_fr_energy">   -172.76238400 </i>
    <i name="e_wo_entrp">   -172.76238400 </i>
    <i name="e_0_energy">   -172.76238400 </i>
   </energy>
  </scstep>
  <scstep>
   <time name="total">    0.91    0.92</time>
   <energy>
    <i name="e_fr_energy">   -172.76239326 </i>
    <i name="e_wo_entrp">   -172.76239326 </i>
    <i name="e_0_energy">   -172.76239326 </i>
   </energy>
  </scstep>
  <scstep>
   <time name="total">    0.91    0.91</time>
   <energy>
    <i name="e_fr_energy">   -172.76239581 </i>
    <i name="e_wo_entrp">   -172.76239581 </i>
    <i name="e_0_energy">   -172.76239581 </i>
   </energy>
  </scstep>
  <scstep>
   <time name="total">    0.91    0.92</time>
   <energy>
    <i name="e_fr_energy">   -172.76239711 </i>
    <i name="e_wo_entrp">   -172.76239711 </i>
    <i name="e_0_energy">   -172.76239711 </i>
   </energy>
  </scstep>
  <scstep>
   <time name="total">    0.91    0.91</time>
   <energy>
    <i name="e_fr_energy">   -172.76239770 </i>
    <i name="e_wo_entrp">   -172.76239770 </i>
    <i name="e_0_energy">   -172.76239770 </i>
   </energy>
  </scstep>
  <scstep>
   <time name="total">    0.91    0.92</time>
   <energy>
    <i name="e_fr_energy">   -172.76239576 </i>
    <i name="e_wo_entrp">   -172.76239576 </i>
    <i name="e_0_energy">   -172.76239576 </i>
   </energy>
  </scstep>
  <scstep>
   <time name="total">   11.93    2.54</time>
   <energy>
    <i name="e_fr_energy">   -182.13499708 </i>
    <i name="e_wo_entrp">   -182.13499708 </i>
    <i name="e_0_energy">   -182.13499708 </i>
   </energy>
  </scstep>
  <scstep>
   <time name="total">   11.59    2.21</time>
   <energy>
    <i name="e_fr_energy">   -172.56629399 </i>
    <i name="e_wo_entrp">   -172.56629399 </i>
    <i name="e_0_energy">   -172.56629399 </i>
   </energy>
  </scstep>
  <scstep>
   <time name="total">   11.66    2.24</time>
   <energy>
    <i name="e_fr_energy">   -172.71733169 </i>
    <i name="e_wo_entrp">   -172.71733169 </i>
    <i name="e_0_energy">   -172.71733169 </i>
   </energy>
  </scstep>
  <scstep>
   <time name="total">    0.90    0.91</time>
   <energy>
    <i name="e_fr_energy">   -172.72453155 </i>
    <i name="e_wo_entrp">   -172.72453155 </i>
    <i name="e_0_energy">   -172.72453155 </i>
   </energy>
  </scstep>
  <scstep>
   <time name="total">    0.91    0.91</time>
   <energy>
    <i name="e_fr_energy">   -172.72466571 </i>
    <i name="e_wo_entrp">   -172.72466571 </i>
    <i name="e_0_energy">   -172.72466571 </i>
   </energy>
  </scstep>
  <scstep>
   <time name="total">    0.91    0.91</time>
   <energy>
    <i name="e_fr_energy">   -172.72466942 </i>
    <i name="e_wo_entrp">   -172.72466942 </i>
    <i name="e_0_energy">   -172.72466942 </i>
   </energy>
  </scstep>
  <scstep>
   <time name="total">    0.92    0.92</time>
   <energy>
    <i name="e_fr_energy">   -172.72467587 </i>
    <i name="e_wo_entrp">   -172.72467587 </i>
    <i name="e_0_energy">   -172.72467587 </i>
   </energy>
  </scstep>
  <scstep>
   <time name="total">    0.91    0.91</time>
   <energy>
    <i name="e_fr_energy">   -172.72467211 </i>
    <i name="e_wo_entrp">   -172.72467211 </i>
    <i name="e_0_energy">   -172.72467211 </i>
   </energy>
  </scstep>
  <scstep>
   <time name="total">    0.92    0.92</time>
   <energy>
    <i name="e_fr_energy">   -172.72467113 </i>
    <i name="e_wo_entrp">   -172.72467113 </i>
    <i name="e_0_energy">   -172.72467113 </i>
   </energy>
  </scstep>
  <scstep>
   <time name="total">    0.92    0.92</time>
   <energy>
    <i name="e_fr_energy">   -172.72466996 </i>
    <i name="e_wo_entrp">   -172.72466996 </i>
    <i name="e_0_energy">   -172.72466996 </i>
   </energy>
  </scstep>
  <scstep>
   <time name="total">    1.70    1.23</time>
   <energy>
    <i name="e_fr_energy">     -0.48317659 </i>
    <i name="e_wo_entrp">     -0.48317659 </i>
    <i name="e_0_energy">     -0.48317659 </i>
   </energy>
  </scstep>
  <scstep>
   <time name="total">    1.70    1.22</time>
   <energy>
    <i name="e_fr_energy">     -0.48537407 </i>
    <i name="e_wo_entrp">     -0.48537407 </i>
    <i name="e_0_energy">     -0.48537407 </i>
   </energy>
  </scstep>
  <scstep>
   <time name="total">    1.68    1.22</time>
   <energy>
    <i name="e_fr_energy">     -0.48556268 </i>
    <i name="e_wo_entrp">     -0.48556268 </i>
    <i name="e_0_energy">     -0.48556268 </i>
   </energy>
  </scstep>
  <scstep>
   <time name="total">    1.69    1.23</time>
   <energy>
    <i name="e_fr_energy">     -0.48557128 </i>
    <i name="e_wo_entrp">     -0.48557128 </i>
    <i name="e_0_energy">     -0.48557128 </i>
   </energy>
  </scstep>
  <scstep>
   <time name="total">    1.69    1.23</time>
   <energy>
    <i name="e_fr_energy">     -0.48557158 </i>
    <i name="e_wo_entrp">     -0.48557158 </i>
    <i name="e_0_energy">     -0.48557158 </i>
   </energy>
  </scstep>
  <scstep>
   <time name="total">    1.64    1.18</time>
   <energy>
    <i name="e_fr_energy">     -0.48557160 </i>
    <i name="e_wo_entrp">     -0.48557160 </i>
    <i name="e_0_energy">     -0.48557160 </i>
   </energy>
  </scstep>
  <scstep>
   <time name="total">    1.59    1.13</time>
   <energy>
    <i name="e_fr_energy">     -0.48557160 </i>
    <i name="e_wo_entrp">     -0.48557160 </i>
    <i name="e_0_energy">     -0.48557160 </i>
   </energy>
  </scstep>
  <scstep>
   <time name="total">    1.57    1.11</time>
   <energy>
    <i name="e_fr_energy">     -0.48557160 </i>
    <i name="e_wo_entrp">     -0.48557160 </i>
    <i name="e_0_energy">     -0.48557160 </i>
   </energy>
  </scstep>
  <scstep>
   <time name="total">    1.56    1.10</time>
   <energy>
    <i name="e_fr_energy">     -0.48557160 </i>
    <i name="e_wo_entrp">     -0.48557160 </i>
    <i name="e_0_energy">     -0.48557160 </i>
   </energy>
  </scstep>
  <scstep>
   <time name="total">    1.68    1.22</time>
   <energy>
    <i name="e_fr_energy">     -0.48320881 </i>
    <i name="e_wo_entrp">     -0.48320881 </i>
    <i name="e_0_energy">     -0.48320881 </i>
   </energy>
  </scstep>
  <scstep>
   <time name="total">    1.67    1.21</time>
   <energy>
    <i name="e_fr_energy">     -0.48536835 </i>
    <i name="e_wo_entrp">     -0.48536835 </i>
    <i name="e_0_energy">     -0.48536835 </i>
   </energy>
  </scstep>
  <scstep>
   <time name="total">    1.68    1.23</time>
   <energy>
    <i name="e_fr_energy">     -0.48555620 </i>
    <i name="e_wo_entrp">     -0.48555620 </i>
    <i name="e_0_energy">     -0.48555620 </i>
   </energy>
  </scstep>
  <scstep>
   <time name="total">    1.68    1.23</time>
   <energy>
    <i name="e_fr_energy">     -0.48556481 </i>
    <i name="e_wo_entrp">     -0.48556481 </i>
    <i name="e_0_energy">     -0.48556481 </i>
   </energy>
  </scstep>
  <scstep>
   <time name="total">    1.68    1.23</time>
   <energy>
    <i name="e_fr_energy">     -0.48556511 </i>
    <i name="e_wo_entrp">     -0.48556511 </i>
    <i name="e_0_energy">     -0.48556511 </i>
   </energy>
  </scstep>
  <scstep>
   <time name="total">    1.63    1.18</time>
   <energy>
    <i name="e_fr_energy">     -0.48556514 </i>
    <i name="e_wo_entrp">     -0.48556514 </i>
    <i name="e_0_energy">     -0.48556514 </i>
   </energy>
  </scstep>
  <scstep>
   <time name="total">    1.59    1.14</time>
   <energy>
    <i name="e_fr_energy">     -0.48556514 </i>
    <i name="e_wo_entrp">     -0.48556514 </i>
    <i name="e_0_energy">     -0.48556514 </i>
   </energy>
  </scstep>
  <scstep>
   <time name="total">    1.58    1.12</time>
   <energy>
    <i name="e_fr_energy">     -0.48556514 </i>
    <i name="e_wo_entrp">     -0.48556514 </i>
    <i name="e_0_energy">     -0.48556514 </i>
   </energy>
  </scstep>
  <scstep>
   <time name="total">    1.57    1.12</time>
   <energy>
    <i name="e_fr_energy">     -0.48556514 </i>
    <i name="e_wo_entrp">     -0.48556514 </i>
    <i name="e_0_energy">     -0.48556514 </i>
   </energy>
  </scstep>
  <scstep>
   <time name="total">    1.67    1.21</time>
   <energy>
    <i name="e_fr_energy">     -0.48760557 </i>
    <i name="e_wo_entrp">     -0.48760557 </i>
    <i name="e_0_energy">     -0.48760557 </i>
   </energy>
  </scstep>
  <scstep>
   <time name="total">    1.66    1.20</time>
   <energy>
    <i name="e_fr_energy">     -0.48965591 </i>
    <i name="e_wo_entrp">     -0.48965591 </i>
    <i name="e_0_energy">     -0.48965591 </i>
   </energy>
  </scstep>
  <scstep>
   <time name="total">    1.67    1.21</time>
   <energy>
    <i name="e_fr_energy">     -0.48984669 </i>
    <i name="e_wo_entrp">     -0.48984669 </i>
    <i name="e_0_energy">     -0.48984669 </i>
   </energy>
  </scstep>
  <scstep>
   <time name="total">    1.68    1.23</time>
   <energy>
    <i name="e_fr_energy">     -0.48985559 </i>
    <i name="e_wo_entrp">     -0.48985559 </i>
    <i name="e_0_energy">     -0.48985559 </i>
   </energy>
  </scstep>
  <scstep>
   <time name="total">    1.68    1.23</time>
   <energy>
    <i name="e_fr_energy">     -0.48985590 </i>
    <i name="e_wo_entrp">     -0.48985590 </i>
    <i name="e_0_energy">     -0.48985590 </i>
   </energy>
  </scstep>
  <scstep>
   <time name="total">    1.64    1.19</time>
   <energy>
    <i name="e_fr_energy">     -0.48985592 </i>
    <i name="e_wo_entrp">     -0.48985592 </i>
    <i name="e_0_energy">     -0.48985592 </i>
   </energy>
  </scstep>
  <scstep>
   <time name="total">    1.59    1.14</time>
   <energy>
    <i name="e_fr_energy">     -0.48985592 </i>
    <i name="e_wo_entrp">     -0.48985592 </i>
    <i name="e_0_energy">     -0.48985592 </i>
   </energy>
  </scstep>
  <scstep>
   <time name="total">    1.57    1.11</time>
   <energy>
    <i name="e_fr_energy">     -0.48985592 </i>
    <i name="e_wo_entrp">     -0.48985592 </i>
    <i name="e_0_energy">     -0.48985592 </i>
   </energy>
  </scstep>
  <scstep>
   <time name="total">    1.57    1.11</time>
   <energy>
    <i name="e_fr_energy">     -0.48985592 </i>
    <i name="e_wo_entrp">     -0.48985592 </i>
    <i name="e_0_energy">     -0.48985592 </i>
   </energy>
  </scstep>
  <varray name="dielectric_ipa" >
   <v>       2.58976860       0.00000000       0.00000000 </v>
   <v>       0.00000000       2.58974781      -0.00010121 </v>
   <v>       0.00000000      -0.00010381       2.60380586 </v>
  </varray>
  <kpoints>
   <generation param="Gamma">
    <v type="int" name="divisions">       4        4        4 </v>
    <v name="usershift">      0.00000000       0.00000000       0.00000000 </v>
    <v name="genvec1">      0.25000000       0.00000000       0.00000000 </v>
    <v name="genvec2">      0.00000000       0.25000000       0.00000000 </v>
    <v name="genvec3">      0.00000000       0.00000000       0.25000000 </v>
    <v name="shift">      0.00000000       0.00000000       0.00000000 </v>
   </generation>
   <varray name="kpointlist" >
    <v>       0.00000000       0.00000000       0.00000000 </v>
    <v>       0.25000000       0.00000000       0.00000000 </v>
    <v>       0.00000000       0.25000000       0.00000000 </v>
    <v>       0.50000000       0.00000000       0.00000000 </v>
    <v>       0.00000000       0.50000000       0.00000000 </v>
    <v>       0.25000000       0.25000000       0.00000000 </v>
    <v>       0.50000000       0.25000000       0.00000000 </v>
    <v>       0.00000000       0.00000000       0.25000000 </v>
    <v>       0.25000000       0.00000000       0.25000000 </v>
    <v>       0.00000000       0.25000000       0.25000000 </v>
    <v>      -0.25000000       0.00000000       0.25000000 </v>
    <v>       0.00000000      -0.25000000       0.25000000 </v>
    <v>       0.50000000       0.00000000       0.25000000 </v>
    <v>       0.00000000       0.50000000       0.25000000 </v>
    <v>       0.25000000       0.25000000       0.25000000 </v>
    <v>       0.50000000       0.25000000       0.25000000 </v>
    <v>      -0.25000000      -0.25000000       0.25000000 </v>
    <v>       0.00000000       0.00000000       0.50000000 </v>
    <v>       0.25000000       0.00000000       0.50000000 </v>
    <v>       0.00000000       0.25000000       0.50000000 </v>
    <v>       0.50000000       0.00000000       0.50000000 </v>
    <v>       0.00000000       0.50000000       0.50000000 </v>
    <v>       0.25000000       0.25000000       0.50000000 </v>
    <v>       0.50000000       0.25000000       0.50000000 </v>
   </varray>
   <varray name="weights" >
    <v>       0.01562500 </v>
    <v>       0.06250000 </v>
    <v>       0.03125000 </v>
    <v>       0.03125000 </v>
    <v>       0.01562500 </v>
    <v>       0.06250000 </v>
    <v>       0.03125000 </v>
    <v>       0.03125000 </v>
    <v>       0.06250000 </v>
    <v>       0.03125000 </v>
    <v>       0.06250000 </v>
    <v>       0.03125000 </v>
    <v>       0.06250000 </v>
    <v>       0.03125000 </v>
    <v>       0.06250000 </v>
    <v>       0.06250000 </v>
    <v>       0.06250000 </v>
    <v>       0.01562500 </v>
    <v>       0.06250000 </v>
    <v>       0.03125000 </v>
    <v>       0.03125000 </v>
    <v>       0.01562500 </v>
    <v>       0.06250000 </v>
    <v>       0.03125000 </v>
   </varray>
  </kpoints>
  <scstep>
   <time name="total">    1.68    1.21</time>
   <energy>
    <i name="e_fr_energy">     -0.48317659 </i>
    <i name="e_wo_entrp">     -0.48317659 </i>
    <i name="e_0_energy">     -0.48317659 </i>
   </energy>
  </scstep>
  <scstep>
   <time name="total">    1.73    1.26</time>
   <energy>
    <i name="e_fr_energy">     -0.48537407 </i>
    <i name="e_wo_entrp">     -0.48537407 </i>
    <i name="e_0_energy">     -0.48537407 </i>
   </energy>
  </scstep>
  <scstep>
   <time name="total">    1.74    1.27</time>
   <energy>
    <i name="e_fr_energy">     -0.46485952 </i>
    <i name="e_wo_entrp">     -0.46485952 </i>
    <i name="e_0_energy">     -0.46485952 </i>
   </energy>
  </scstep>
  <scstep>
   <time name="total">    1.75    1.27</time>
   <energy>
    <i name="e_fr_energy">     -0.47608868 </i>
    <i name="e_wo_entrp">     -0.47608868 </i>
    <i name="e_0_energy">     -0.47608868 </i>
   </energy>
  </scstep>
  <scstep>
   <time name="total">    1.74    1.26</time>
   <energy>
    <i name="e_fr_energy">     -0.49383978 </i>
    <i name="e_wo_entrp">     -0.49383978 </i>
    <i name="e_0_energy">     -0.49383978 </i>
   </energy>
  </scstep>
  <scstep>
   <time name="total">    1.72    1.25</time>
   <energy>
    <i name="e_fr_energy">     -0.49674868 </i>
    <i name="e_wo_entrp">     -0.49674868 </i>
    <i name="e_0_energy">     -0.49674868 </i>
   </energy>
  </scstep>
  <scstep>
   <time name="total">    1.76    1.28</time>
   <energy>
    <i name="e_fr_energy">     -0.49699551 </i>
    <i name="e_wo_entrp">     -0.49699551 </i>
    <i name="e_0_energy">     -0.49699551 </i>
   </energy>
  </scstep>
  <scstep>
   <time name="total">    1.75    1.28</time>
   <energy>
    <i name="e_fr_energy">     -0.49722579 </i>
    <i name="e_wo_entrp">     -0.49722579 </i>
    <i name="e_0_energy">     -0.49722579 </i>
   </energy>
  </scstep>
  <scstep>
   <time name="total">    1.75    1.27</time>
   <energy>
    <i name="e_fr_energy">     -0.49728494 </i>
    <i name="e_wo_entrp">     -0.49728494 </i>
    <i name="e_0_energy">     -0.49728494 </i>
   </energy>
  </scstep>
  <scstep>
   <time name="total">    1.75    1.28</time>
   <energy>
    <i name="e_fr_energy">     -0.49728160 </i>
    <i name="e_wo_entrp">     -0.49728160 </i>
    <i name="e_0_energy">     -0.49728160 </i>
   </energy>
  </scstep>
  <scstep>
   <time name="total">    1.75    1.27</time>
   <energy>
    <i name="e_fr_energy">     -0.49728235 </i>
    <i name="e_wo_entrp">     -0.49728235 </i>
    <i name="e_0_energy">     -0.49728235 </i>
   </energy>
  </scstep>
  <scstep>
   <time name="total">    1.70    1.22</time>
   <energy>
    <i name="e_fr_energy">     -0.49728244 </i>
    <i name="e_wo_entrp">     -0.49728244 </i>
    <i name="e_0_energy">     -0.49728244 </i>
   </energy>
  </scstep>
  <scstep>
   <time name="total">    1.69    1.21</time>
   <energy>
    <i name="e_fr_energy">     -0.49728250 </i>
    <i name="e_wo_entrp">     -0.49728250 </i>
    <i name="e_0_energy">     -0.49728250 </i>
   </energy>
  </scstep>
  <scstep>
   <time name="total">    1.71    1.23</time>
   <energy>
    <i name="e_fr_energy">     -0.49728250 </i>
    <i name="e_wo_entrp">     -0.49728250 </i>
    <i name="e_0_energy">     -0.49728250 </i>
   </energy>
  </scstep>
  <kpoints>
   <generation param="Gamma">
    <v type="int" name="divisions">       4        4        4 </v>
    <v name="usershift">      0.00000000       0.00000000       0.00000000 </v>
    <v name="genvec1">      0.25000000       0.00000000       0.00000000 </v>
    <v name="genvec2">      0.00000000       0.25000000       0.00000000 </v>
    <v name="genvec3">      0.00000000       0.00000000       0.25000000 </v>
    <v name="shift">      0.00000000       0.00000000       0.00000000 </v>
   </generation>
   <varray name="kpointlist" >
    <v>       0.00000000       0.00000000       0.00000000 </v>
    <v>       0.25000000       0.00000000       0.00000000 </v>
    <v>       0.00000000       0.25000000       0.00000000 </v>
    <v>      -0.25000000       0.25000000       0.00000000 </v>
    <v>       0.50000000       0.00000000       0.00000000 </v>
    <v>       0.00000000       0.50000000       0.00000000 </v>
    <v>       0.50000000       0.50000000       0.00000000 </v>
    <v>       0.25000000       0.25000000       0.00000000 </v>
    <v>      -0.25000000       0.50000000       0.00000000 </v>
    <v>       0.50000000       0.25000000       0.00000000 </v>
    <v>       0.00000000       0.00000000       0.25000000 </v>
    <v>       0.25000000       0.00000000       0.25000000 </v>
    <v>       0.00000000       0.25000000       0.25000000 </v>
    <v>      -0.25000000       0.25000000       0.25000000 </v>
    <v>      -0.25000000       0.00000000       0.25000000 </v>
    <v>       0.00000000      -0.25000000       0.25000000 </v>
    <v>       0.25000000      -0.25000000       0.25000000 </v>
    <v>       0.50000000       0.00000000       0.25000000 </v>
    <v>       0.00000000       0.50000000       0.25000000 </v>
    <v>       0.50000000       0.50000000       0.25000000 </v>
    <v>       0.25000000       0.25000000       0.25000000 </v>
    <v>      -0.25000000       0.50000000       0.25000000 </v>
    <v>       0.50000000       0.25000000       0.25000000 </v>
    <v>      -0.25000000      -0.25000000       0.25000000 </v>
    <v>       0.25000000       0.50000000       0.25000000 </v>
    <v>       0.50000000      -0.25000000       0.25000000 </v>
    <v>       0.00000000       0.00000000       0.50000000 </v>
    <v>       0.25000000       0.00000000       0.50000000 </v>
    <v>       0.00000000       0.25000000       0.50000000 </v>
    <v>      -0.25000000       0.25000000       0.50000000 </v>
    <v>       0.50000000       0.00000000       0.50000000 </v>
    <v>       0.00000000       0.50000000       0.50000000 </v>
    <v>       0.50000000       0.50000000       0.50000000 </v>
    <v>       0.25000000       0.25000000       0.50000000 </v>
    <v>      -0.25000000       0.50000000       0.50000000 </v>
    <v>       0.50000000       0.25000000       0.50000000 </v>
   </varray>
   <varray name="weights" >
    <v>       0.01562500 </v>
    <v>       0.03125000 </v>
    <v>       0.03125000 </v>
    <v>       0.03125000 </v>
    <v>       0.01562500 </v>
    <v>       0.01562500 </v>
    <v>       0.01562500 </v>
    <v>       0.03125000 </v>
    <v>       0.03125000 </v>
    <v>       0.03125000 </v>
    <v>       0.03125000 </v>
    <v>       0.03125000 </v>
    <v>       0.03125000 </v>
    <v>       0.03125000 </v>
    <v>       0.03125000 </v>
    <v>       0.03125000 </v>
    <v>       0.03125000 </v>
    <v>       0.03125000 </v>
    <v>       0.03125000 </v>
    <v>       0.03125000 </v>
    <v>       0.03125000 </v>
    <v>       0.03125000 </v>
    <v>       0.03125000 </v>
    <v>       0.03125000 </v>
    <v>       0.03125000 </v>
    <v>       0.03125000 </v>
    <v>       0.01562500 </v>
    <v>       0.03125000 </v>
    <v>       0.03125000 </v>
    <v>       0.03125000 </v>
    <v>       0.01562500 </v>
    <v>       0.01562500 </v>
    <v>       0.01562500 </v>
    <v>       0.03125000 </v>
    <v>       0.03125000 </v>
    <v>       0.03125000 </v>
   </varray>
  </kpoints>
  <scstep>
   <time name="total">    2.21    1.75</time>
   <energy>
    <i name="e_fr_energy">     -0.48320885 </i>
    <i name="e_wo_entrp">     -0.48320885 </i>
    <i name="e_0_energy">     -0.48320885 </i>
   </energy>
  </scstep>
  <scstep>
   <time name="total">    2.29    1.83</time>
   <energy>
    <i name="e_fr_energy">     -0.48536837 </i>
    <i name="e_wo_entrp">     -0.48536837 </i>
    <i name="e_0_energy">     -0.48536837 </i>
   </energy>
  </scstep>
  <scstep>
   <time name="total">    2.31    1.84</time>
   <energy>
    <i name="e_fr_energy">     -0.46527073 </i>
    <i name="e_wo_entrp">     -0.46527073 </i>
    <i name="e_0_energy">     -0.46527073 </i>
   </energy>
  </scstep>
  <scstep>
   <time name="total">    2.32    1.84</time>
   <energy>
    <i name="e_fr_energy">     -0.47596272 </i>
    <i name="e_wo_entrp">     -0.47596272 </i>
    <i name="e_0_energy">     -0.47596272 </i>
   </energy>
  </scstep>
  <scstep>
   <time name="total">    2.30    1.83</time>
   <energy>
    <i name="e_fr_energy">     -0.49371540 </i>
    <i name="e_wo_entrp">     -0.49371540 </i>
    <i name="e_0_energy">     -0.49371540 </i>
   </energy>
  </scstep>
  <scstep>
   <time name="total">    2.28    1.81</time>
   <energy>
    <i name="e_fr_energy">     -0.49662451 </i>
    <i name="e_wo_entrp">     -0.49662451 </i>
    <i name="e_0_energy">     -0.49662451 </i>
   </energy>
  </scstep>
  <scstep>
   <time name="total">    2.32    1.85</time>
   <energy>
    <i name="e_fr_energy">     -0.49687645 </i>
    <i name="e_wo_entrp">     -0.49687645 </i>
    <i name="e_0_energy">     -0.49687645 </i>
   </energy>
  </scstep>
  <scstep>
   <time name="total">    2.31    1.84</time>
   <energy>
    <i name="e_fr_energy">     -0.49710843 </i>
    <i name="e_wo_entrp">     -0.49710843 </i>
    <i name="e_0_energy">     -0.49710843 </i>
   </energy>
  </scstep>
  <scstep>
   <time name="total">    2.32    1.85</time>
   <energy>
    <i name="e_fr_energy">     -0.49717408 </i>
    <i name="e_wo_entrp">     -0.49717408 </i>
    <i name="e_0_energy">     -0.49717408 </i>
   </energy>
  </scstep>
  <scstep>
   <time name="total">    2.32    1.85</time>
   <energy>
    <i name="e_fr_energy">     -0.49716956 </i>
    <i name="e_wo_entrp">     -0.49716956 </i>
    <i name="e_0_energy">     -0.49716956 </i>
   </energy>
  </scstep>
  <scstep>
   <time name="total">    2.33    1.86</time>
   <energy>
    <i name="e_fr_energy">     -0.49717069 </i>
    <i name="e_wo_entrp">     -0.49717069 </i>
    <i name="e_0_energy">     -0.49717069 </i>
   </energy>
  </scstep>
  <scstep>
   <time name="total">    2.24    1.77</time>
   <energy>
    <i name="e_fr_energy">     -0.49717049 </i>
    <i name="e_wo_entrp">     -0.49717049 </i>
    <i name="e_0_energy">     -0.49717049 </i>
   </energy>
  </scstep>
  <scstep>
   <time name="total">    2.26    1.79</time>
   <energy>
    <i name="e_fr_energy">     -0.49717054 </i>
    <i name="e_wo_entrp">     -0.49717054 </i>
    <i name="e_0_energy">     -0.49717054 </i>
   </energy>
  </scstep>
  <scstep>
   <time name="total">    2.29    1.82</time>
   <energy>
    <i name="e_fr_energy">     -0.49717048 </i>
    <i name="e_wo_entrp">     -0.49717048 </i>
    <i name="e_0_energy">     -0.49717048 </i>
   </energy>
  </scstep>
  <kpoints>
   <generation param="Gamma">
    <v type="int" name="divisions">       4        4        4 </v>
    <v name="usershift">      0.00000000       0.00000000       0.00000000 </v>
    <v name="genvec1">      0.25000000       0.00000000       0.00000000 </v>
    <v name="genvec2">      0.00000000       0.25000000       0.00000000 </v>
    <v name="genvec3">      0.00000000       0.00000000       0.25000000 </v>
    <v name="shift">      0.00000000       0.00000000       0.00000000 </v>
   </generation>
   <varray name="kpointlist" >
    <v>       0.00000000       0.00000000       0.00000000 </v>
    <v>       0.25000000       0.00000000       0.00000000 </v>
    <v>       0.00000000       0.25000000       0.00000000 </v>
    <v>      -0.25000000       0.25000000       0.00000000 </v>
    <v>       0.50000000       0.00000000       0.00000000 </v>
    <v>       0.00000000       0.50000000       0.00000000 </v>
    <v>       0.50000000       0.50000000       0.00000000 </v>
    <v>       0.25000000       0.25000000       0.00000000 </v>
    <v>      -0.25000000       0.50000000       0.00000000 </v>
    <v>       0.50000000       0.25000000       0.00000000 </v>
    <v>       0.00000000       0.00000000       0.25000000 </v>
    <v>       0.25000000       0.00000000       0.25000000 </v>
    <v>       0.00000000       0.25000000       0.25000000 </v>
    <v>      -0.25000000       0.25000000       0.25000000 </v>
    <v>      -0.25000000       0.00000000       0.25000000 </v>
    <v>       0.00000000      -0.25000000       0.25000000 </v>
    <v>       0.25000000      -0.25000000       0.25000000 </v>
    <v>       0.50000000       0.00000000       0.25000000 </v>
    <v>       0.00000000       0.50000000       0.25000000 </v>
    <v>       0.50000000       0.50000000       0.25000000 </v>
    <v>       0.25000000       0.25000000       0.25000000 </v>
    <v>      -0.25000000       0.50000000       0.25000000 </v>
    <v>       0.50000000       0.25000000       0.25000000 </v>
    <v>      -0.25000000      -0.25000000       0.25000000 </v>
    <v>       0.25000000       0.50000000       0.25000000 </v>
    <v>       0.50000000      -0.25000000       0.25000000 </v>
    <v>       0.00000000       0.00000000       0.50000000 </v>
    <v>       0.25000000       0.00000000       0.50000000 </v>
    <v>       0.00000000       0.25000000       0.50000000 </v>
    <v>      -0.25000000       0.25000000       0.50000000 </v>
    <v>       0.50000000       0.00000000       0.50000000 </v>
    <v>       0.00000000       0.50000000       0.50000000 </v>
    <v>       0.50000000       0.50000000       0.50000000 </v>
    <v>       0.25000000       0.25000000       0.50000000 </v>
    <v>      -0.25000000       0.50000000       0.50000000 </v>
    <v>       0.50000000       0.25000000       0.50000000 </v>
   </varray>
   <varray name="weights" >
    <v>       0.01562500 </v>
    <v>       0.03125000 </v>
    <v>       0.03125000 </v>
    <v>       0.03125000 </v>
    <v>       0.01562500 </v>
    <v>       0.01562500 </v>
    <v>       0.01562500 </v>
    <v>       0.03125000 </v>
    <v>       0.03125000 </v>
    <v>       0.03125000 </v>
    <v>       0.03125000 </v>
    <v>       0.03125000 </v>
    <v>       0.03125000 </v>
    <v>       0.03125000 </v>
    <v>       0.03125000 </v>
    <v>       0.03125000 </v>
    <v>       0.03125000 </v>
    <v>       0.03125000 </v>
    <v>       0.03125000 </v>
    <v>       0.03125000 </v>
    <v>       0.03125000 </v>
    <v>       0.03125000 </v>
    <v>       0.03125000 </v>
    <v>       0.03125000 </v>
    <v>       0.03125000 </v>
    <v>       0.03125000 </v>
    <v>       0.01562500 </v>
    <v>       0.03125000 </v>
    <v>       0.03125000 </v>
    <v>       0.03125000 </v>
    <v>       0.01562500 </v>
    <v>       0.01562500 </v>
    <v>       0.01562500 </v>
    <v>       0.03125000 </v>
    <v>       0.03125000 </v>
    <v>       0.03125000 </v>
   </varray>
  </kpoints>
  <scstep>
   <time name="total">    2.19    1.74</time>
   <energy>
    <i name="e_fr_energy">     -0.48760558 </i>
    <i name="e_wo_entrp">     -0.48760558 </i>
    <i name="e_0_energy">     -0.48760558 </i>
   </energy>
  </scstep>
  <scstep>
   <time name="total">    2.27    1.80</time>
   <energy>
    <i name="e_fr_energy">     -0.48965587 </i>
    <i name="e_wo_entrp">     -0.48965587 </i>
    <i name="e_0_energy">     -0.48965587 </i>
   </energy>
  </scstep>
  <scstep>
   <time name="total">    2.29    1.82</time>
   <energy>
    <i name="e_fr_energy">     -0.47554279 </i>
    <i name="e_wo_entrp">     -0.47554279 </i>
    <i name="e_0_energy">     -0.47554279 </i>
   </energy>
  </scstep>
  <scstep>
   <time name="total">    2.30    1.83</time>
   <energy>
    <i name="e_fr_energy">     -0.48771517 </i>
    <i name="e_wo_entrp">     -0.48771517 </i>
    <i name="e_0_energy">     -0.48771517 </i>
   </energy>
  </scstep>
  <scstep>
   <time name="total">    2.30    1.83</time>
   <energy>
    <i name="e_fr_energy">     -0.50391343 </i>
    <i name="e_wo_entrp">     -0.50391343 </i>
    <i name="e_0_energy">     -0.50391343 </i>
   </energy>
  </scstep>
  <scstep>
   <time name="total">    2.26    1.79</time>
   <energy>
    <i name="e_fr_energy">     -0.50677145 </i>
    <i name="e_wo_entrp">     -0.50677145 </i>
    <i name="e_0_energy">     -0.50677145 </i>
   </energy>
  </scstep>
  <scstep>
   <time name="total">    2.32    1.84</time>
   <energy>
    <i name="e_fr_energy">     -0.50696559 </i>
    <i name="e_wo_entrp">     -0.50696559 </i>
    <i name="e_0_energy">     -0.50696559 </i>
   </energy>
  </scstep>
  <scstep>
   <time name="total">    2.30    1.83</time>
   <energy>
    <i name="e_fr_energy">     -0.50721695 </i>
    <i name="e_wo_entrp">     -0.50721695 </i>
    <i name="e_0_energy">     -0.50721695 </i>
   </energy>
  </scstep>
  <scstep>
   <time name="total">    2.31    1.84</time>
   <energy>
    <i name="e_fr_energy">     -0.50724760 </i>
    <i name="e_wo_entrp">     -0.50724760 </i>
    <i name="e_0_energy">     -0.50724760 </i>
   </energy>
  </scstep>
  <scstep>
   <time name="total">    2.31    1.85</time>
   <energy>
    <i name="e_fr_energy">     -0.50724661 </i>
    <i name="e_wo_entrp">     -0.50724661 </i>
    <i name="e_0_energy">     -0.50724661 </i>
   </energy>
  </scstep>
  <scstep>
   <time name="total">    2.33    1.86</time>
   <energy>
    <i name="e_fr_energy">     -0.50724352 </i>
    <i name="e_wo_entrp">     -0.50724352 </i>
    <i name="e_0_energy">     -0.50724352 </i>
   </energy>
  </scstep>
  <scstep>
   <time name="total">    2.26    1.79</time>
   <energy>
    <i name="e_fr_energy">     -0.50724401 </i>
    <i name="e_wo_entrp">     -0.50724401 </i>
    <i name="e_0_energy">     -0.50724401 </i>
   </energy>
  </scstep>
  <scstep>
   <time name="total">    2.31    1.84</time>
   <energy>
    <i name="e_fr_energy">     -0.50724398 </i>
    <i name="e_wo_entrp">     -0.50724398 </i>
    <i name="e_0_energy">     -0.50724398 </i>
   </energy>
  </scstep>
  <scstep>
   <time name="total">    2.26    1.79</time>
   <energy>
    <i name="e_fr_energy">     -0.50724411 </i>
    <i name="e_wo_entrp">     -0.50724411 </i>
    <i name="e_0_energy">     -0.50724411 </i>
   </energy>
  </scstep>
  <kpoints>
   <generation param="Gamma">
    <v type="int" name="divisions">       4        4        4 </v>
    <v name="usershift">      0.00000000       0.00000000       0.00000000 </v>
    <v name="genvec1">      0.25000000       0.00000000       0.00000000 </v>
    <v name="genvec2">      0.00000000       0.25000000       0.00000000 </v>
    <v name="genvec3">      0.00000000       0.00000000       0.25000000 </v>
    <v name="shift">      0.00000000       0.00000000       0.00000000 </v>
   </generation>
   <varray name="kpointlist" >
    <v>       0.00000000       0.00000000       0.00000000 </v>
    <v>       0.25000000       0.00000000       0.00000000 </v>
    <v>       0.00000000       0.25000000       0.00000000 </v>
    <v>       0.50000000       0.00000000       0.00000000 </v>
    <v>       0.00000000       0.50000000       0.00000000 </v>
    <v>       0.25000000       0.25000000       0.00000000 </v>
    <v>       0.50000000       0.25000000       0.00000000 </v>
    <v>       0.00000000       0.00000000       0.25000000 </v>
    <v>       0.25000000       0.00000000       0.25000000 </v>
    <v>       0.00000000       0.25000000       0.25000000 </v>
    <v>      -0.25000000       0.00000000       0.25000000 </v>
    <v>       0.00000000      -0.25000000       0.25000000 </v>
    <v>       0.50000000       0.00000000       0.25000000 </v>
    <v>       0.00000000       0.50000000       0.25000000 </v>
    <v>       0.25000000       0.25000000       0.25000000 </v>
    <v>       0.50000000       0.25000000       0.25000000 </v>
    <v>      -0.25000000      -0.25000000       0.25000000 </v>
    <v>       0.00000000       0.00000000       0.50000000 </v>
    <v>       0.25000000       0.00000000       0.50000000 </v>
    <v>       0.00000000       0.25000000       0.50000000 </v>
    <v>       0.50000000       0.00000000       0.50000000 </v>
    <v>       0.00000000       0.50000000       0.50000000 </v>
    <v>       0.25000000       0.25000000       0.50000000 </v>
    <v>       0.50000000       0.25000000       0.50000000 </v>
   </varray>
   <varray name="weights" >
    <v>       0.01562500 </v>
    <v>       0.06250000 </v>
    <v>       0.03125000 </v>
    <v>       0.03125000 </v>
    <v>       0.01562500 </v>
    <v>       0.06250000 </v>
    <v>       0.03125000 </v>
    <v>       0.03125000 </v>
    <v>       0.06250000 </v>
    <v>       0.03125000 </v>
    <v>       0.06250000 </v>
    <v>       0.03125000 </v>
    <v>       0.06250000 </v>
    <v>       0.03125000 </v>
    <v>       0.06250000 </v>
    <v>       0.06250000 </v>
    <v>       0.06250000 </v>
    <v>       0.01562500 </v>
    <v>       0.06250000 </v>
    <v>       0.03125000 </v>
    <v>       0.03125000 </v>
    <v>       0.01562500 </v>
    <v>       0.06250000 </v>
    <v>       0.03125000 </v>
   </varray>
  </kpoints>
  <varray name="dielectric_dft" >
   <v>       2.48099619       0.00000000      -0.00000000 </v>
   <v>       0.00000000       2.48064277      -0.00011020 </v>
   <v>       0.00000000      -0.00011397       2.51334464 </v>
  </varray>
  <varray name="epsilon" >
   <v>       2.48099619       0.00000000      -0.00000000 </v>
   <v>       0.00000000       2.48064277      -0.00011020 </v>
   <v>       0.00000000      -0.00011397       2.51334464 </v>
  </varray>
  <kpoints>
   <generation param="Gamma">
    <v type="int" name="divisions">       4        4        4 </v>
    <v name="usershift">      0.00000000       0.00000000       0.00000000 </v>
    <v name="genvec1">      0.25000000       0.00000000       0.00000000 </v>
    <v name="genvec2">      0.00000000       0.25000000       0.00000000 </v>
    <v name="genvec3">      0.00000000       0.00000000       0.25000000 </v>
    <v name="shift">      0.00000000       0.00000000       0.00000000 </v>
   </generation>
   <varray name="kpointlist" >
    <v>       0.00000000       0.00000000       0.00000000 </v>
    <v>       0.25000000       0.00000000       0.00000000 </v>
    <v>       0.00000000       0.25000000       0.00000000 </v>
    <v>       0.50000000       0.00000000       0.00000000 </v>
    <v>       0.00000000       0.50000000       0.00000000 </v>
    <v>       0.25000000       0.25000000       0.00000000 </v>
    <v>       0.50000000       0.25000000       0.00000000 </v>
    <v>       0.00000000       0.00000000       0.25000000 </v>
    <v>       0.25000000       0.00000000       0.25000000 </v>
    <v>       0.00000000       0.25000000       0.25000000 </v>
    <v>      -0.25000000       0.00000000       0.25000000 </v>
    <v>       0.00000000      -0.25000000       0.25000000 </v>
    <v>       0.50000000       0.00000000       0.25000000 </v>
    <v>       0.00000000       0.50000000       0.25000000 </v>
    <v>       0.25000000       0.25000000       0.25000000 </v>
    <v>       0.50000000       0.25000000       0.25000000 </v>
    <v>      -0.25000000      -0.25000000       0.25000000 </v>
    <v>       0.00000000       0.00000000       0.50000000 </v>
    <v>       0.25000000       0.00000000       0.50000000 </v>
    <v>       0.00000000       0.25000000       0.50000000 </v>
    <v>       0.50000000       0.00000000       0.50000000 </v>
    <v>       0.00000000       0.50000000       0.50000000 </v>
    <v>       0.25000000       0.25000000       0.50000000 </v>
    <v>       0.50000000       0.25000000       0.50000000 </v>
   </varray>
   <varray name="weights" >
    <v>       0.01562500 </v>
    <v>       0.06250000 </v>
    <v>       0.03125000 </v>
    <v>       0.03125000 </v>
    <v>       0.01562500 </v>
    <v>       0.06250000 </v>
    <v>       0.03125000 </v>
    <v>       0.03125000 </v>
    <v>       0.06250000 </v>
    <v>       0.03125000 </v>
    <v>       0.06250000 </v>
    <v>       0.03125000 </v>
    <v>       0.06250000 </v>
    <v>       0.03125000 </v>
    <v>       0.06250000 </v>
    <v>       0.06250000 </v>
    <v>       0.06250000 </v>
    <v>       0.01562500 </v>
    <v>       0.06250000 </v>
    <v>       0.03125000 </v>
    <v>       0.03125000 </v>
    <v>       0.01562500 </v>
    <v>       0.06250000 </v>
    <v>       0.03125000 </v>
   </varray>
  </kpoints>
  <array name="born_charges" >
   <dimension dim="1">ion</dimension>
   <set>
    <v>       2.98079162       0.00000000      -0.00000000 </v>
    <v>       0.00000000       3.62163225      -0.32152494 </v>
    <v>       0.00000000       0.27841000       3.42587034 </v>
   </set>
   <set>
    <v>       3.46052639       0.27627343       0.27844516 </v>
    <v>       0.27701931       3.13984516       0.16021652 </v>
    <v>      -0.24068037      -0.13892809       3.42495645 </v>
   </set>
   <set>
    <v>       3.46052639      -0.27627343      -0.27844516 </v>
    <v>      -0.27701931       3.13984516       0.16021652 </v>
    <v>       0.24068037      -0.13892809       3.42495645 </v>
   </set>
   <set>
    <v>      -1.31163786      -0.49336262      -0.30999985 </v>
    <v>      -0.43664455      -1.98992614      -0.67870205 </v>
    <v>      -0.24391395      -0.72212198      -1.71279268 </v>
   </set>
   <set>
    <v>      -2.22193327      -0.09001068       0.74323722 </v>
    <v>      -0.03252664      -1.07787388       0.07100866 </v>
    <v>       0.74584692       0.14993784      -1.71277101 </v>
   </set>
   <set>
    <v>      -1.41735108       0.49729597      -0.43282983 </v>
    <v>       0.55457925      -1.88286127       0.60823934 </v>
    <v>      -0.50290222       0.57190723      -1.71232794 </v>
   </set>
   <set>
    <v>      -1.31163786       0.49336262       0.30999985 </v>
    <v>       0.43664455      -1.98992614      -0.67870205 </v>
    <v>       0.24391395      -0.72212198      -1.71279268 </v>
   </set>
   <set>
    <v>      -2.22193327       0.09001068      -0.74323722 </v>
    <v>       0.03252664      -1.07787388       0.07100866 </v>
    <v>      -0.74584692       0.14993784      -1.71277101 </v>
   </set>
   <set>
    <v>      -1.41735108      -0.49729597       0.43282983 </v>
    <v>      -0.55457925      -1.88286127       0.60823934 </v>
    <v>       0.50290222       0.57190723      -1.71232794 </v>
   </set>
  </array>
  <time name="totalsc">  307.22  181.06</time>
  <eigenvalues>
   <array>
    <dimension dim="1">band</dimension>
    <dimension dim="2">kpoint</dimension>
    <dimension dim="3">spin</dimension>
    <field>eigene</field>
    <field>occ</field>
    <set>
     <set comment="spin 1">
      <set comment="kpoint 1">
       <r>  -18.1720    1.0000 </r>
       <r>  -16.6253    1.0000 </r>
       <r>  -16.6148    1.0000 </r>
       <r>  -15.9553    1.0000 </r>
       <r>  -15.9482    1.0000 </r>
       <r>  -15.9328    1.0000 </r>
       <r>   -6.8844    1.0000 </r>
       <r>   -6.8735    1.0000 </r>
       <r>   -4.1465    1.0000 </r>
       <r>   -4.0643    1.0000 </r>
       <r>   -3.9145    1.0000 </r>
       <r>   -3.9076    1.0000 </r>
       <r>   -1.6900    1.0000 </r>
       <r>   -1.6813    1.0000 </r>
       <r>   -1.3748    1.0000 </r>
       <r>   -1.1507    1.0000 </r>
       <r>   -0.1568    1.0000 </r>
       <r>   -0.1541    1.0000 </r>
       <r>   -0.0980    1.0000 </r>
       <r>    0.2575    1.0000 </r>
       <r>    0.2651    1.0000 </r>
       <r>    0.4586    1.0000 </r>
       <r>    1.0012    1.0000 </r>
       <r>    1.0073    1.0000 </r>
       <r>    7.3235    0.0000 </r>
       <r>   10.6034    0.0000 </r>
       <r>   10.6136    0.0000 </r>
       <r>   11.2364    0.0000 </r>
       <r>   11.2368    0.0000 </r>
      </set>
      <set comment="kpoint 2">
       <r>  -17.9886    1.0000 </r>
       <r>  -16.8201    1.0000 </r>
       <r>  -16.5911    1.0000 </r>
       <r>  -16.0182    1.0000 </r>
       <r>  -15.9767    1.0000 </r>
       <r>  -15.9435    1.0000 </r>
       <r>   -6.9595    1.0000 </r>
       <r>   -6.5065    1.0000 </r>
       <r>   -4.2163    1.0000 </r>
       <r>   -4.1556    1.0000 </r>
       <r>   -4.0339    1.0000 </r>
       <r>   -3.6178    1.0000 </r>
       <r>   -1.8717    1.0000 </r>
       <r>   -1.5579    1.0000 </r>
       <r>   -1.3473    1.0000 </r>
       <r>   -0.8964    1.0000 </r>
       <r>   -0.6981    1.0000 </r>
       <r>   -0.2382    1.0000 </r>
       <r>   -0.1597    1.0000 </r>
       <r>    0.1810    1.0000 </r>
       <r>    0.2754    1.0000 </r>
       <r>    0.4201    1.0000 </r>
       <r>    1.0545    1.0000 </r>
       <r>    1.1405    1.0000 </r>
       <r>    8.2330    0.0000 </r>
       <r>   10.6698    0.0000 </r>
       <r>   10.7205    0.0000 </r>
       <r>   11.2063    0.0000 </r>
       <r>   11.4827    0.0000 </r>
      </set>
      <set comment="kpoint 3">
       <r>  -17.9869    1.0000 </r>
       <r>  -16.8191    1.0000 </r>
       <r>  -16.5987    1.0000 </r>
       <r>  -16.0214    1.0000 </r>
       <r>  -15.9762    1.0000 </r>
       <r>  -15.9359    1.0000 </r>
       <r>   -6.9518    1.0000 </r>
       <r>   -6.5145    1.0000 </r>
       <r>   -4.2209    1.0000 </r>
       <r>   -4.1514    1.0000 </r>
       <r>   -4.0297    1.0000 </r>
       <r>   -3.6209    1.0000 </r>
       <r>   -1.8752    1.0000 </r>
       <r>   -1.5543    1.0000 </r>
       <r>   -1.3485    1.0000 </r>
       <r>   -0.8981    1.0000 </r>
       <r>   -0.6954    1.0000 </r>
       <r>   -0.2411    1.0000 </r>
       <r>   -0.1605    1.0000 </r>
       <r>    0.1760    1.0000 </r>
       <r>    0.2799    1.0000 </r>
       <r>    0.4227    1.0000 </r>
       <r>    1.0516    1.0000 </r>
       <r>    1.1440    1.0000 </r>
       <r>    8.2330    0.0000 </r>
       <r>   10.6684    0.0000 </r>
       <r>   10.7201    0.0000 </r>
       <r>   11.2093    0.0000 </r>
       <r>   11.4828    0.0000 </r>
      </set>
      <set comment="kpoint 4">
       <r>  -17.6682    1.0000 </r>
       <r>  -17.1783    1.0000 </r>
       <r>  -16.5625    1.0000 </r>
       <r>  -16.0449    1.0000 </r>
       <r>  -15.9979    1.0000 </r>
       <r>  -15.9739    1.0000 </r>
       <r>   -7.0330    1.0000 </r>
       <r>   -6.0415    1.0000 </r>
       <r>   -4.5538    1.0000 </r>
       <r>   -4.0973    1.0000 </r>
       <r>   -4.0921    1.0000 </r>
       <r>   -3.2800    1.0000 </r>
       <r>   -1.8250    1.0000 </r>
       <r>   -1.6203    1.0000 </r>
       <r>   -1.4346    1.0000 </r>
       <r>   -1.0020    1.0000 </r>
       <r>   -0.7921    1.0000 </r>
       <r>   -0.4784    1.0000 </r>
       <r>   -0.2891    1.0000 </r>
       <r>    0.1975    1.0000 </r>
       <r>    0.2806    1.0000 </r>
       <r>    0.5594    1.0000 </r>
       <r>    1.0153    1.0000 </r>
       <r>    1.2401    1.0000 </r>
       <r>    9.6354    0.0000 </r>
       <r>   10.3703    0.0000 </r>
       <r>   10.9666    0.0000 </r>
       <r>   10.9889    0.0000 </r>
       <r>   11.9969    0.0000 </r>
      </set>
      <set comment="kpoint 5">
       <r>  -17.6586    1.0000 </r>
       <r>  -17.1894    1.0000 </r>
       <r>  -16.5696    1.0000 </r>
       <r>  -16.0455    1.0000 </r>
       <r>  -16.0062    1.0000 </r>
       <r>  -15.9563    1.0000 </r>
       <r>   -7.0256    1.0000 </r>
       <r>   -6.0488    1.0000 </r>
       <r>   -4.5609    1.0000 </r>
       <r>   -4.0934    1.0000 </r>
       <r>   -4.0834    1.0000 </r>
       <r>   -3.2853    1.0000 </r>
       <r>   -1.8216    1.0000 </r>
       <r>   -1.6274    1.0000 </r>
       <r>   -1.4354    1.0000 </r>
       <r>   -0.9996    1.0000 </r>
       <r>   -0.7929    1.0000 </r>
       <r>   -0.4816    1.0000 </r>
       <r>   -0.2850    1.0000 </r>
       <r>    0.1915    1.0000 </r>
       <r>    0.2842    1.0000 </r>
       <r>    0.5599    1.0000 </r>
       <r>    1.0145    1.0000 </r>
       <r>    1.2434    1.0000 </r>
       <r>    9.6346    0.0000 </r>
[...]
       <r>    1.1169    1.0000 </r>
       <r>   10.2273    0.0000 </r>
       <r>   10.7230    0.0000 </r>
       <r>   11.0150    0.0000 </r>
       <r>   11.2002    0.0000 </r>
       <r>   11.5372    0.0000 </r>
      </set>
      <set comment="kpoint 22">
       <r>  -17.5800    1.0000 </r>
       <r>  -17.1488    1.0000 </r>
       <r>  -16.7100    1.0000 </r>
       <r>  -16.0786    1.0000 </r>
       <r>  -15.9937    1.0000 </r>
       <r>  -15.9482    1.0000 </r>
       <r>   -6.8698    1.0000 </r>
       <r>   -5.9194    1.0000 </r>
       <r>   -5.0528    1.0000 </r>
       <r>   -3.9894    1.0000 </r>
       <r>   -3.7093    1.0000 </r>
       <r>   -3.6136    1.0000 </r>
       <r>   -1.9330    1.0000 </r>
       <r>   -1.9223    1.0000 </r>
       <r>   -1.1443    1.0000 </r>
       <r>   -0.8247    1.0000 </r>
       <r>   -0.7465    1.0000 </r>
       <r>   -0.2809    1.0000 </r>
       <r>    0.0218    1.0000 </r>
       <r>    0.1872    1.0000 </r>
       <r>    0.3956    1.0000 </r>
       <r>    0.4064    1.0000 </r>
       <r>    0.6980    1.0000 </r>
       <r>    1.1246    1.0000 </r>
       <r>   10.2274    0.0000 </r>
       <r>   10.7295    0.0000 </r>
       <r>   11.0135    0.0000 </r>
       <r>   11.2003    0.0000 </r>
       <r>   11.5421    0.0000 </r>
      </set>
      <set comment="kpoint 23">
       <r>  -17.5734    1.0000 </r>
       <r>  -17.1876    1.0000 </r>
       <r>  -16.6543    1.0000 </r>
       <r>  -16.0625    1.0000 </r>
       <r>  -15.9947    1.0000 </r>
       <r>  -15.9881    1.0000 </r>
       <r>   -6.8552    1.0000 </r>
       <r>   -5.8713    1.0000 </r>
       <r>   -5.1568    1.0000 </r>
       <r>   -3.8970    1.0000 </r>
       <r>   -3.7956    1.0000 </r>
       <r>   -3.6152    1.0000 </r>
       <r>   -1.9739    1.0000 </r>
       <r>   -1.7473    1.0000 </r>
       <r>   -1.2642    1.0000 </r>
       <r>   -0.8995    1.0000 </r>
       <r>   -0.6219    1.0000 </r>
       <r>   -0.4242    1.0000 </r>
       <r>    0.1488    1.0000 </r>
       <r>    0.2547    1.0000 </r>
       <r>    0.3282    1.0000 </r>
       <r>    0.5710    1.0000 </r>
       <r>    0.7171    1.0000 </r>
       <r>    0.9257    1.0000 </r>
       <r>   10.1771    0.0000 </r>
       <r>   10.6512    0.0000 </r>
       <r>   10.9622    0.0000 </r>
       <r>   11.3064    0.0000 </r>
       <r>   11.7224    0.0000 </r>
      </set>
      <set comment="kpoint 24">
       <r>  -17.5791    1.0000 </r>
       <r>  -17.1826    1.0000 </r>
       <r>  -16.6485    1.0000 </r>
       <r>  -16.0614    1.0000 </r>
       <r>  -15.9957    1.0000 </r>
       <r>  -15.9935    1.0000 </r>
       <r>   -6.8595    1.0000 </r>
       <r>   -5.8675    1.0000 </r>
       <r>   -5.1551    1.0000 </r>
       <r>   -3.8997    1.0000 </r>
       <r>   -3.7935    1.0000 </r>
       <r>   -3.6160    1.0000 </r>
       <r>   -1.9740    1.0000 </r>
       <r>   -1.7461    1.0000 </r>
       <r>   -1.2658    1.0000 </r>
       <r>   -0.9020    1.0000 </r>
       <r>   -0.6235    1.0000 </r>
       <r>   -0.4183    1.0000 </r>
       <r>    0.1504    1.0000 </r>
       <r>    0.2578    1.0000 </r>
       <r>    0.3289    1.0000 </r>
       <r>    0.5717    1.0000 </r>
       <r>    0.7151    1.0000 </r>
       <r>    0.9212    1.0000 </r>
       <r>   10.1770    0.0000 </r>
       <r>   10.6506    0.0000 </r>
       <r>   10.9653    0.0000 </r>
       <r>   11.3018    0.0000 </r>
       <r>   11.7238    0.0000 </r>
      </set>
     </set>
    </set>
   </array>
  </eigenvalues>
  <separator name="orbital magnetization" >
   <v name="MAGDIPOLOUT">      0.00000000      0.00000000      0.00000000</v>
  </separator>
  <dos>
   <i name="efermi">      1.78969532 </i>
   <total>
    <array>
     <dimension dim="1">gridpoints</dimension>
     <dimension dim="2">spin</dimension>
     <field>energy</field>
     <field>total</field>
     <field>integrated</field>
     <set>
      <set comment="spin 1">
       <r>   -19.6809     0.0000     0.0000 </r>
       <r>   -19.5703     0.0000     0.0000 </r>
       <r>   -19.4596     0.0000     0.0000 </r>
       <r>   -19.3490     0.0000     0.0000 </r>
       <r>   -19.2383     0.0000     0.0000 </r>
       <r>   -19.1277     0.0000     0.0000 </r>
       <r>   -19.0170     0.0000     0.0000 </r>
       <r>   -18.9063     0.0000     0.0000 </r>
       <r>   -18.7957     0.0000     0.0000 </r>
       <r>   -18.6850     0.0000     0.0000 </r>
       <r>   -18.5744     0.0000     0.0000 </r>
       <r>   -18.4637     0.0000     0.0000 </r>
       <r>   -18.3531     0.0015     0.0002 </r>
       <r>   -18.2424     0.0455     0.0052 </r>
       <r>   -18.1318     0.2561     0.0335 </r>
       <r>   -18.0211     0.9597     0.1397 </r>
       <r>   -17.9104     2.1813     0.3811 </r>
       <r>   -17.7998     2.2496     0.6300 </r>
       <r>   -17.6891     3.1627     0.9800 </r>
       <r>   -17.5785     6.7025     1.7217 </r>
       <r>   -17.4678     3.7342     2.1349 </r>
       <r>   -17.3572     0.7679     2.2198 </r>
       <r>   -17.2465     1.6769     2.4054 </r>
       <r>   -17.1359     7.3355     3.2171 </r>
       <r>   -17.0252     4.6879     3.7359 </r>
       <r>   -16.9145     0.5602     3.7978 </r>
       <r>   -16.8039     0.9857     3.9069 </r>
       <r>   -16.6932     2.7585     4.2122 </r>
       <r>   -16.5826     6.4610     4.9271 </r>
       <r>   -16.4719     3.7323     5.3401 </r>
       <r>   -16.3613     1.9983     5.5612 </r>
       <r>   -16.2506     2.2020     5.8049 </r>
       <r>   -16.1400     3.0438     6.1417 </r>
       <r>   -16.0293    16.2062     7.9350 </r>
       <r>   -15.9186    27.0263    10.9256 </r>
       <r>   -15.8080     9.1706    11.9404 </r>
       <r>   -15.6973     0.5344    11.9995 </r>
       <r>   -15.5867     0.0043    12.0000 </r>
       <r>   -15.4760     0.0000    12.0000 </r>
       <r>   -15.3654     0.0000    12.0000 </r>
       <r>   -15.2547     0.0000    12.0000 </r>
       <r>   -15.1441     0.0000    12.0000 </r>
       <r>   -15.0334     0.0000    12.0000 </r>
       <r>   -14.9227     0.0000    12.0000 </r>
       <r>   -14.8121     0.0000    12.0000 </r>
       <r>   -14.7014     0.0000    12.0000 </r>
       <r>   -14.5908     0.0000    12.0000 </r>
       <r>   -14.4801     0.0000    12.0000 </r>
       <r>   -14.3695     0.0000    12.0000 </r>
       <r>   -14.2588     0.0000    12.0000 </r>
       <r>   -14.1482     0.0000    12.0000 </r>
       <r>   -14.0375     0.0000    12.0000 </r>
       <r>   -13.9268     0.0000    12.0000 </r>
       <r>   -13.8162     0.0000    12.0000 </r>
       <r>   -13.7055     0.0000    12.0000 </r>
       <r>   -13.5949     0.0000    12.0000 </r>
       <r>   -13.4842     0.0000    12.0000 </r>
       <r>   -13.3736     0.0000    12.0000 </r>
       <r>   -13.2629     0.0000    12.0000 </r>
       <r>   -13.1523     0.0000    12.0000 </r>
       <r>   -13.0416     0.0000    12.0000 </r>
       <r>   -12.9309     0.0000    12.0000 </r>
       <r>   -12.8203     0.0000    12.0000 </r>
       <r>   -12.7096     0.0000    12.0000 </r>
       <r>   -12.5990     0.0000    12.0000 </r>
       <r>   -12.4883     0.0000    12.0000 </r>
       <r>   -12.3777     0.0000    12.0000 </r>
       <r>   -12.2670     0.0000    12.0000 </r>
       <r>   -12.1564     0.0000    12.0000 </r>
       <r>   -12.0457     0.0000    12.0000 </r>
       <r>   -11.9350     0.0000    12.0000 </r>
       <r>   -11.8244     0.0000    12.0000 </r>
       <r>   -11.7137     0.0000    12.0000 </r>
       <r>   -11.6031     0.0000    12.0000 </r>
       <r>   -11.4924     0.0000    12.0000 </r>
       <r>   -11.3818     0.0000    12.0000 </r>
       <r>   -11.2711     0.0000    12.0000 </r>
       <r>   -11.1605     0.0000    12.0000 </r>
       <r>   -11.0498     0.0000    12.0000 </r>
       <r>   -10.9392     0.0000    12.0000 </r>
       <r>   -10.8285     0.0000    12.0000 </r>
       <r>   -10.7178     0.0000    12.0000 </r>
       <r>   -10.6072     0.0000    12.0000 </r>
       <r>   -10.4965     0.0000    12.0000 </r>
       <r>   -10.3859     0.0000    12.0000 </r>
       <r>   -10.2752     0.0000    12.0000 </r>
       <r>   -10.1646     0.0000    12.0000 </r>
       <r>   -10.0539     0.0000    12.0000 </r>
       <r>    -9.9433     0.0000    12.0000 </r>
       <r>    -9.8326     0.0000    12.0000 </r>
       <r>    -9.7219     0.0000    12.0000 </r>
       <r>    -9.6113     0.0000    12.0000 </r>
       <r>    -9.5006     0.0000    12.0000 </r>
       <r>    -9.3900     0.0000    12.0000 </r>
       <r>    -9.2793     0.0000    12.0000 </r>
       <r>    -9.1687     0.0000    12.0000 </r>
       <r>    -9.0580     0.0000    12.0000 </r>
       <r>    -8.9474     0.0000    12.0000 </r>
       <r>    -8.8367     0.0000    12.0000 </r>
       <r>    -8.7260     0.0000    12.0000 </r>
       <r>    -8.6154     0.0000    12.0000 </r>
       <r>    -8.5047     0.0000    12.0000 </r>
       <r>    -8.3941     0.0000    12.0000 </r>
       <r>    -8.2834     0.0000    12.0000 </r>
       <r>    -8.1728     0.0002    12.0000 </r>
       <r>    -8.0621     0.0127    12.0014 </r>
       <r>    -7.9515     0.1143    12.0141 </r>
       <r>    -7.8408     0.1362    12.0291 </r>
       <r>    -7.7301     0.0971    12.0399 </r>
       <r>    -7.6195     0.4293    12.0874 </r>
       <r>    -7.5088     0.9880    12.1967 </r>
       <r>    -7.3982     1.2418    12.3341 </r>
       <r>    -7.2875     1.9679    12.5519 </r>
       <r>    -7.1769     0.9950    12.6620 </r>
       <r>    -7.0662     1.4571    12.8232 </r>
       <r>    -6.9556     4.7008    13.3434 </r>
       <r>    -6.8449     4.6701    13.8602 </r>
       <r>    -6.7342     1.4409    14.0196 </r>
       <r>    -6.6236     0.1941    14.0411 </r>
       <r>    -6.5129     0.7227    14.1211 </r>
       <r>    -6.4023     0.7718    14.2065 </r>
       <r>    -6.2916     0.1094    14.2186 </r>
       <r>    -6.1810     0.0287    14.2218 </r>
       <r>    -6.0703     0.5657    14.2844 </r>
       <r>    -5.9597     3.5630    14.6786 </r>
       <r>    -5.8490     6.9495    15.4476 </r>
       <r>    -5.7383     2.8318    15.7610 </r>
       <r>    -5.6277     0.1818    15.7811 </r>
       <r>    -5.5170     0.0195    15.7833 </r>
       <r>    -5.4064     0.3732    15.8245 </r>
       <r>    -5.2957     0.9994    15.9351 </r>
       <r>    -5.1851     0.9384    16.0390 </r>
       <r>    -5.0744     2.2605    16.2891 </r>
       <r>    -4.9638     3.9032    16.7210 </r>
       <r>    -4.8531     2.9411    17.0465 </r>
       <r>    -4.7424     1.8379    17.2498 </r>
       <r>    -4.6318     1.8370    17.4531 </r>
       <r>    -4.5211     1.9537    17.6693 </r>
       <r>    -4.4105     0.5981    17.7355 </r>
       <r>    -4.2998     0.7813    17.8219 </r>
       <r>    -4.1892     3.2333    18.1797 </r>
       <r>    -4.0785     9.0385    19.1799 </r>
       <r>    -3.9679     9.5588    20.2376 </r>
       <r>    -3.8572     6.6302    20.9713 </r>
       <r>    -3.7465     6.7530    21.7185 </r>
       <r>    -3.6359     5.6420    22.3429 </r>
       <r>    -3.5252     5.6957    22.9731 </r>
       <r>    -3.4146     5.0295    23.5297 </r>
       <r>    -3.3039     2.6021    23.8176 </r>
       <r>    -3.1933     1.4087    23.9735 </r>
       <r>    -3.0826     0.2347    23.9994 </r>
       <r>    -2.9720     0.0050    24.0000 </r>
       <r>    -2.8613     0.0000    24.0000 </r>
       <r>    -2.7506     0.0000    24.0000 </r>
       <r>    -2.6400     0.0000    24.0000 </r>
       <r>    -2.5293     0.0000    24.0000 </r>
       <r>    -2.4187     0.0000    24.0000 </r>
       <r>    -2.3080     0.0000    24.0000 </r>
       <r>    -2.1974     0.0019    24.0002 </r>
       <r>    -2.0867     0.1866    24.0209 </r>
       <r>    -1.9761     2.8183    24.3327 </r>
       <r>    -1.8654     8.0696    25.2257 </r>
       <r>    -1.7547     8.0831    26.1201 </r>
       <r>    -1.6441     6.7660    26.8688 </r>
       <r>    -1.5334     5.2989    27.4551 </r>
       <r>    -1.4228     6.5030    28.1747 </r>
       <r>    -1.3121     8.4563    29.1105 </r>
       <r>    -1.2015     5.8352    29.7562 </r>
       <r>    -1.0908     3.8551    30.1828 </r>
       <r>    -0.9802     4.9795    30.7338 </r>
       <r>    -0.8695     8.4438    31.6681 </r>
       <r>    -0.7588     6.8686    32.4282 </r>
       <r>    -0.6482     7.4206    33.2493 </r>
       <r>    -0.5375     6.2389    33.9397 </r>
       <r>    -0.4269     6.3043    34.6373 </r>
       <r>    -0.3162     5.9333    35.2938 </r>
       <r>    -0.2056     8.2067    36.2019 </r>
       <r>    -0.0949     9.7969    37.2860 </r>
       <r>     0.0157     8.1501    38.1879 </r>
       <r>     0.1264     8.9779    39.1813 </r>
       <r>     0.2371     9.5294    40.2358 </r>
       <r>     0.3477    10.7165    41.4217 </r>
       <r>     0.4584     8.5653    42.3695 </r>
       <r>     0.5690     5.7821    43.0093 </r>
       <r>     0.6797     6.2609    43.7021 </r>
       <r>     0.7903     5.2814    44.2865 </r>
       <r>     0.9010     6.7048    45.0284 </r>
       <r>     1.0116     6.6988    45.7697 </r>
       <r>     1.1223     7.9261    46.6467 </r>
       <r>     1.2330     8.1757    47.5514 </r>
       <r>     1.3436     3.5617    47.9455 </r>
       <r>     1.4543     0.4814    47.9988 </r>
       <r>     1.5649     0.0108    48.0000 </r>
       <r>     1.6756     0.0000    48.0000 </r>
       <r>     1.7862     0.0000    48.0000 </r>
       <r>     1.8969     0.0000    48.0000 </r>
       <r>     2.0075     0.0000    48.0000 </r>
       <r>     2.1182     0.0000    48.0000 </r>
       <r>     2.2289     0.0000    48.0000 </r>
       <r>     2.3395     0.0000    48.0000 </r>
       <r>     2.4502     0.0000    48.0000 </r>
       <r>     2.5608     0.0000    48.0000 </r>
       <r>     2.6715     0.0000    48.0000 </r>
       <r>     2.7821     0.0000    48.0000 </r>
       <r>     2.8928     0.0000    48.0000 </r>
       <r>     3.0034     0.0000    48.0000 </r>
       <r>     3.1141     0.0000    48.0000 </r>
       <r>     3.2248     0.0000    48.0000 </r>
       <r>     3.3354     0.0000    48.0000 </r>
       <r>     3.4461     0.0000    48.0000 </r>
       <r>     3.5567     0.0000    48.0000 </r>
       <r>     3.6674     0.0000    48.0000 </r>
       <r>     3.7780     0.0000    48.0000 </r>
       <r>     3.8887     0.0000    48.0000 </r>
       <r>     3.9993     0.0000    48.0000 </r>
       <r>     4.1100     0.0000    48.0000 </r>
       <r>     4.2207     0.0000    48.0000 </r>
       <r>     4.3313     0.0000    48.0000 </r>
       <r>     4.4420     0.0000    48.0000 </r>
       <r>     4.5526     0.0000    48.0000 </r>
       <r>     4.6633     0.0000    48.0000 </r>
       <r>     4.7739     0.0000    48.0000 </r>
       <r>     4.8846     0.0000    48.0000 </r>
       <r>     4.9952     0.0000    48.0000 </r>
       <r>     5.1059     0.0000    48.0000 </r>
       <r>     5.2166     0.0000    48.0000 </r>
       <r>     5.3272     0.0000    48.0000 </r>
       <r>     5.4379     0.0000    48.0000 </r>
       <r>     5.5485     0.0000    48.0000 </r>
       <r>     5.6592     0.0000    48.0000 </r>
       <r>     5.7698     0.0000    48.0000 </r>
       <r>     5.8805     0.0000    48.0000 </r>
       <r>     5.9911     0.0000    48.0000 </r>
       <r>     6.1018     0.0000    48.0000 </r>
       <r>     6.2125     0.0000    48.0000 </r>
       <r>     6.3231     0.0000    48.0000 </r>
       <r>     6.4338     0.0000    48.0000 </r>
       <r>     6.5444     0.0000    48.0000 </r>
       <r>     6.6551     0.0000    48.0000 </r>
       <r>     6.7657     0.0000    48.0000 </r>
       <r>     6.8764     0.0000    48.0000 </r>
       <r>     6.9870     0.0000    48.0000 </r>
       <r>     7.0977     0.0002    48.0000 </r>
       <r>     7.2084     0.0144    48.0016 </r>
       <r>     7.3190     0.1195    48.0148 </r>
       <r>     7.4297     0.1295    48.0292 </r>
       <r>     7.5403     0.0185    48.0312 </r>
       <r>     7.6510     0.0003    48.0313 </r>
       <r>     7.7616     0.0039    48.0317 </r>
       <r>     7.8723     0.1001    48.0428 </r>
       <r>     7.9829     0.3183    48.0780 </r>
       <r>     8.0936     0.1765    48.0975 </r>
       <r>     8.2043     0.5458    48.1579 </r>
       <r>     8.3149     0.9057    48.2581 </r>
       <r>     8.4256     0.2040    48.2807 </r>
       <r>     8.5362     0.0673    48.2882 </r>
       <r>     8.6469     0.8986    48.3876 </r>
       <r>     8.7575     1.8397    48.5912 </r>
       <r>     8.8682     0.5645    48.6536 </r>
       <r>     8.9788     0.0236    48.6562 </r>
       <r>     9.0895     0.0007    48.6563 </r>
       <r>     9.2002     0.0350    48.6602 </r>
       <r>     9.3108     0.2706    48.6901 </r>
       <r>     9.4215     0.6008    48.7566 </r>
       <r>     9.5321     1.0900    48.8772 </r>
       <r>     9.6428     1.5199    49.0454 </r>
       <r>     9.7534     3.1371    49.3925 </r>
       <r>     9.8641     2.9124    49.7148 </r>
       <r>     9.9747     1.6626    49.8988 </r>
       <r>    10.0854     0.5222    49.9566 </r>
       <r>    10.1961     1.1402    50.0828 </r>
       <r>    10.3067     1.3578    50.2330 </r>
       <r>    10.4174     2.1662    50.4727 </r>
       <r>    10.5280     3.1351    50.8196 </r>
       <r>    10.6387     5.3662    51.4134 </r>
       <r>    10.7493     9.0771    52.4178 </r>
       <r>    10.8600     5.9787    53.0794 </r>
       <r>    10.9706     6.7549    53.8269 </r>
       <r>    11.0813     7.1108    54.6137 </r>
       <r>    11.1920     2.8952    54.9341 </r>
       <r>    11.3026     3.8091    55.3556 </r>
       <r>    11.4133     5.7403    55.9908 </r>
       <r>    11.5239     6.3362    56.6919 </r>
       <r>    11.6346     5.1883    57.2661 </r>
       <r>    11.7452     3.3037    57.6316 </r>
       <r>    11.8559     2.0499    57.8585 </r>
       <r>    11.9665     0.6833    57.9341 </r>
       <r>    12.0772     0.4781    57.9870 </r>
       <r>    12.1879     0.1141    57.9996 </r>
       <r>    12.2985     0.0034    58.0000 </r>
       <r>    12.4092     0.0000    58.0000 </r>
       <r>    12.5198     0.0000    58.0000 </r>
       <r>    12.6305     0.0000    58.0000 </r>
       <r>    12.7411     0.0000    58.0000 </r>
       <r>    12.8518     0.0000    58.0000 </r>
       <r>    12.9624     0.0000    58.0000 </r>
       <r>    13.0731     0.0000    58.0000 </r>
       <r>    13.1838     0.0000    58.0000 </r>
       <r>    13.2944     0.0000    58.0000 </r>
       <r>    13.4051     0.0000    58.0000 </r>
       <r>    13.5157     0.0000    58.0000 </r>
      </set>
     </set>
    </array>
   </total>
  </dos>
 </calculation>
 <structure name="finalpos" >
  <crystal>
   <varray name="basis" >
    <v>       4.87342988       0.00000000       0.00000000 </v>
    <v>      -2.43671494       4.22051408       0.00000000 </v>
    <v>       0.00000000       0.00000000       5.37418982 </v>
   </varray>
   <i name="volume">    110.53837516 </i>
   <varray name="rec_basis" >
    <v>       0.20519429       0.11846898      -0.00000000 </v>
    <v>       0.00000000       0.23693796       0.00000000 </v>
    <v>       0.00000000      -0.00000000       0.18607456 </v>
   </varray>
  </crystal>
  <varray name="positions" >
   <v>       0.46471656       1.00000000       0.66666666 </v>
   <v>       0.99990987       0.46462108       0.33352545 </v>
   <v>       0.53528879       0.53537892       0.99980789 </v>
   <v>       0.13562791       0.72408747       0.55418494 </v>
   <v>       0.27603202       0.41141289       0.22091568 </v>
   <v>       0.58843725       0.86454517       0.88746570 </v>
   <v>       0.41154044       0.27591253       0.77914839 </v>
   <v>       0.86461913       0.58858711       0.11241765 </v>
   <v>       0.72389209       0.13545484       0.44586764 </v>
  </varray>
 </structure>
</modeling>
